<UPF version="2.0.1">
  <PP_INFO>
    Generated using "atomic" code by A. Dal Corso  v.5.4.0
    Author: ADC
    Generation date:  9May2018
    Pseudopotential type: USPP
    Element: Sn
    Functional: PBESOL

    Suggested minimum cutoff for wavefunctions:  47. Ry
    Suggested minimum cutoff for charge density: 250. Ry
    The Pseudo was generated with a Scalar-Relativistic Calculation
    Local Potential by smoothing AE potential with Bessel fncs, cutoff radius:   1.9000
    Pseudopotential contains additional information for GIPAW reconstruction.

    Valence configuration: 
    nl pn  l   occ       Rcut    Rcut US       E pseu
    5S  1  0  2.00      1.800      2.000    -0.778718
    5P  2  1  2.00      2.000      2.300    -0.272569
    4D  3  2 10.00      1.300      1.600    -1.895691
    Generation configuration:
    5S  1  0  2.00      1.800      2.000    -0.778715
    5S  1  0  0.00      1.800      2.000     3.000000
    5P  2  1  2.00      2.000      2.300    -0.272568
    5P  2  1  0.00      2.000      2.300     6.000000
    4D  3  2 10.00      1.300      1.600    -1.895690
    4D  3  2  0.00      1.300      1.600     4.500000

    Pseudization used: troullier-martins
<PP_INPUTFILE>
 &input
   title='Sn',
   zed=50.,
   rel=1,
   config='[Kr] 5s2 5p2 4d10',
   iswitch=3,
   dft='PBESOL'
 /
 &inputp
   lpaw=.false.,
   pseudotype=3,
   file_pseudopw='Sn.pbesol-dn-rrkjus_psl.1.0.0.UPF',
   author='ADC',
   lloc=-1,
   rcloc=1.9,
   which_augfun='PSQ',
   rmatch_augfun_nc=.true.,
   nlcc=.true.,
   new_core_ps=.true.,
   rcore=1.2,
   tm=.true.
 /
6
5S  1  0  2.00  0.00  1.80  2.00  0.0
5S  1  0  0.00  3.00  1.80  2.00  0.0
5P  2  1  2.00  0.00  2.00  2.30  0.0
5P  2  1  0.00  6.00  2.00  2.30  0.0
4D  3  2 10.00  0.00  1.30  1.60  0.0
4D  3  2  0.00  4.50  1.30  1.60  0.0
</PP_INPUTFILE>
  </PP_INFO>
  <!--                               -->
  <!-- END OF HUMAN READABLE SECTION -->
  <!--                               -->
  <PP_HEADER generated='Generated using "atomic" code by A. Dal Corso  v.5.4.0'
             author="ADC"
             date=" 9May2018"
             comment=""
             element="Sn"
             pseudo_type="USPP"
             relativistic="scalar"
             is_ultrasoft="T"
             is_paw="F"
             is_coulomb="F"
             has_so="F"
             has_wfc="F"
             has_gipaw="T"
             paw_as_gipaw="F"
             core_correction="T"
             functional="PBESOL"
             z_valence="1.400000000000000E+001"
             total_psenergy="-1.623230749143780E+002"
             wfc_cutoff="4.706471453020092E+001"
             rho_cutoff="2.499855569990104E+002"
             l_max="2"
             l_max_rho="4"
             l_local="-1"
             mesh_size="1243"
             number_of_wfc="3"
             number_of_proj="6"/>
  <PP_MESH dx="1.250000000000000E-002" mesh="1243" xmin="-7.000000000000000E+000" rmax="1.000000000000000E+002"
zmesh="5.000000000000000E+001">
    <PP_R type="real" size="1243" columns="4">
 1.823763931109033E-005  1.846704057338044E-005  1.869932734833164E-005  1.893453593122508E-005 
 1.917270307388040E-005  1.941386599039818E-005  1.965806236297477E-005  1.990533034779023E-005 
 2.015570858097021E-005  2.040923618462309E-005  2.066595277295274E-005  2.092589845844837E-005 
 2.118911385815220E-005  2.145564010000594E-005  2.172551882927716E-005  2.199879221506636E-005 
 2.227550295689606E-005  2.255569429138265E-005  2.283940999899215E-005  2.312669441088115E-005 
 2.341759241582349E-005  2.371214946722426E-005  2.401041159022202E-005  2.431242538888029E-005 
 2.461823805346962E-005  2.492789736784099E-005  2.524145171689229E-005  2.555895009412849E-005 
 2.588044210931696E-005  2.620597799623920E-005  2.653560862053983E-005  2.686938548767454E-005 
 2.720736075095788E-005  2.754958721971234E-005  2.789611836751997E-005  2.824700834057763E-005 
 2.860231196615749E-005  2.896208476117391E-005  2.932638294085806E-005  2.969526342754174E-005 
 3.006878385955145E-005  3.044700260021463E-005  3.082997874697900E-005  3.121777214064664E-005 
 3.161044337472434E-005  3.200805380489128E-005  3.241066555858613E-005  3.281834154471452E-005 
 3.323114546347868E-005  3.364914181633082E-005  3.407239591605148E-005  3.450097389695485E-005 
 3.493494272522239E-005  3.537437020936641E-005  3.581932501082539E-005  3.626987665469230E-005 
 3.672609554057814E-005  3.718805295361202E-005  3.765582107557955E-005  3.812947299620153E-005 
 3.860908272455419E-005  3.909472520063334E-005  3.958647630706394E-005  4.008441288095678E-005 
 4.058861272591468E-005  4.109915462418918E-005  4.161611834899059E-005  4.213958467695268E-005 
 4.266963540075416E-005  4.320635334189909E-005  4.374982236365770E-005  4.430012738417034E-005 
 4.485735438971607E-005  4.542159044814814E-005  4.599292372249872E-005  4.657144348475428E-005 
 4.715724012980466E-005  4.775040518956747E-005  4.835103134729007E-005  4.895921245203166E-005 
 4.957504353332717E-005  5.019862081603597E-005  5.083004173537716E-005  5.146940495215400E-005 
 5.211681036816997E-005  5.277235914183843E-005  5.343615370398901E-005  5.410829777387253E-005 
 5.478889637536737E-005  5.547805585338977E-005  5.617588389051025E-005  5.688248952377935E-005 
 5.759798316176486E-005  5.832247660180335E-005  5.905608304746893E-005  5.979891712626121E-005 
 6.055109490751630E-005  6.131273392054287E-005  6.208395317298617E-005  6.286487316942361E-005 
 6.365561593019334E-005  6.445630501046053E-005  6.526706551952296E-005  6.608802414035964E-005 
 6.691930914942543E-005  6.776105043669423E-005  6.861337952595469E-005  6.947642959536107E-005 
 7.035033549824257E-005  7.123523378417459E-005  7.213126272031461E-005  7.303856231300687E-005 
 7.395727432965864E-005  7.488754232089161E-005  7.582951164297215E-005  7.678332948052327E-005 
 7.774914486952260E-005  7.872710872058967E-005  7.971737384256581E-005  8.072009496639117E-005 
 8.173542876928133E-005  8.276353389920873E-005  8.380457099969159E-005  8.485870273489480E-005 
 8.592609381504680E-005  8.700691102217538E-005  8.810132323616813E-005  8.920950146116004E-005 
 9.033161885225332E-005  9.146785074257346E-005  9.261837467066492E-005  9.378337040823222E-005 
 9.496301998822956E-005  9.615750773330372E-005  9.736702028459526E-005  9.859174663090103E-005 
 9.983187813820434E-005  1.010876085795763E-004  1.023591341654530E-004  1.036466535742945E-004 
 1.049503679836277E-004  1.062704811014815E-004  1.076071991982164E-004  1.089607311387545E-004 
 1.103312884152154E-004  1.117190851799620E-004  1.131243382790622E-004  1.145472672861717E-004 
 1.159880945368428E-004  1.174470451632650E-004  1.189243471294419E-004  1.204202312668112E-004 
 1.219349313103128E-004  1.234686839349100E-004  1.250217287925712E-004  1.265943085497149E-004 
 1.281866689251277E-004  1.297990587283577E-004  1.314317298985922E-004  1.330849375440235E-004 
 1.347589399817093E-004  1.364539987779366E-004  1.381703787890907E-004  1.399083482030402E-004 
 1.416681785810425E-004  1.434501449001740E-004  1.452545255962978E-004  1.470816026075687E-004 
 1.489316614184868E-004  1.508049911045055E-004  1.527018843771992E-004  1.546226376300014E-004 
 1.565675509845155E-004  1.585369283374099E-004  1.605310774079032E-004  1.625503097858442E-004 
 1.645949409804006E-004  1.666652904693562E-004  1.687616817490306E-004  1.708844423848269E-004 
 1.730339040624127E-004  1.752104026395486E-004  1.774142781985652E-004  1.796458750995023E-004 
 1.819055420339165E-004  1.841936320793628E-004  1.865105027545665E-004  1.888565160752842E-004 
 1.912320386108701E-004  1.936374415415538E-004  1.960731007164366E-004  1.985393967122202E-004 
 2.010367148926717E-004  2.035654454688374E-004  2.061259835600150E-004  2.087187292554901E-004 
 2.113440876770531E-004  2.140024690422985E-004  2.166942887287230E-004  2.194199673386298E-004 
 2.221799307648461E-004  2.249746102572733E-004  2.278044424902675E-004  2.306698696308724E-004 
 2.335713394079090E-004  2.365093051819324E-004  2.394842260160724E-004  2.424965667477620E-004 
 2.455467980613687E-004  2.486353965617419E-004  2.517628448486799E-004  2.549296315923413E-004 
 2.581362516095975E-004  2.613832059413496E-004  2.646710019308188E-004  2.680001533028166E-004 
 2.713711802440187E-004  2.747846094842429E-004  2.782409743787524E-004  2.817408149915947E-004 
 2.852846781799851E-004  2.888731176797576E-004  2.925066941918844E-004  2.961859754700880E-004 
 2.999115364095543E-004  3.036839591367589E-004  3.075038331004286E-004  3.113717551636418E-004 
 3.152883296970897E-004  3.192541686735124E-004  3.232698917633175E-004  3.273361264314085E-004 
 3.314535080352251E-004  3.356226799240192E-004  3.398442935393817E-004  3.441190085170277E-004 
 3.484474927898703E-004  3.528304226923833E-004  3.572684830662807E-004  3.617623673675262E-004 
 3.663127777746836E-004  3.709204252986377E-004  3.755860298936882E-004  3.803103205700451E-004 
 3.850940355077386E-004  3.899379221719599E-004  3.948427374298556E-004  3.998092476687886E-004 
 4.048382289160878E-004  4.099304669603051E-004  4.150867574739948E-004  4.203079061380406E-004 
 4.255947287675435E-004  4.309480514392954E-004  4.363687106208555E-004  4.418575533012489E-004 
 4.474154371233120E-004  4.530432305176994E-004  4.587418128385786E-004  4.645120745010315E-004 
 4.703549171201821E-004  4.762712536520776E-004  4.822620085363375E-004  4.883281178406007E-004 
 4.944705294067879E-004  5.006902029992030E-004  5.069881104544989E-004  5.133652358335287E-004 
 5.198225755751070E-004  5.263611386517063E-004  5.329819467271097E-004  5.396860343160497E-004 
 5.464744489458513E-004  5.533482513201116E-004  5.603085154844364E-004  5.673563289942620E-004 
 5.744927930847886E-004  5.817190228430496E-004  5.890361473821458E-004  5.964453100176742E-004 
 6.039476684463701E-004  6.115443949270019E-004  6.192366764635379E-004  6.270257149906177E-004 
 6.349127275613591E-004  6.428989465375214E-004  6.509856197820686E-004  6.591740108541473E-004 
 6.674653992065216E-004  6.758610803854912E-004  6.843623662333207E-004  6.929705850932205E-004 
 7.016870820169008E-004  7.105132189747392E-004  7.194503750685933E-004  7.284999467472847E-004 
 7.376633480248003E-004  7.469420107012324E-004  7.563373845865017E-004  7.658509377268932E-004 
 7.754841566344401E-004  7.852385465191964E-004  7.951156315244264E-004  8.051169549647570E-004 
 8.152440795673245E-004  8.254985877159510E-004  8.358820816983983E-004  8.463961839567263E-004 
 8.570425373408037E-004  8.678228053650075E-004  8.787386724681484E-004  8.897918442766704E-004 
 9.009840478711564E-004  9.123170320561882E-004  9.237925676336024E-004  9.354124476791796E-004 
 9.471784878228186E-004  9.590925265322295E-004  9.711564254001995E-004  9.833720694354716E-004 
 9.957413673572788E-004  1.008266251893587E-003  1.020948680083088E-003  1.033790633580988E-003 
 1.046794118968648E-003  1.059961168067116E-003  1.073293838254603E-003  1.086794212787950E-003 
 1.100464401128145E-003  1.114306539269928E-003  1.128322790075547E-003  1.142515343612706E-003 
 1.156886417496770E-003  1.171438257237271E-003  1.186173136588774E-003  1.201093357906159E-003 
 1.216201252504360E-003  1.231499181022645E-003  1.246989533793469E-003  1.262674731215967E-003 
 1.278557224134151E-003  1.294639494219851E-003  1.310924054360487E-003  1.327413449051713E-003 
 1.344110254794995E-003  1.361017080500204E-003  1.378136567893252E-003  1.395471391928873E-003 
 1.413024261208592E-003  1.430797918403944E-003  1.448795140685029E-003  1.467018740154443E-003 
 1.485471564286678E-003  1.504156496373049E-003  1.523076455972207E-003  1.542234399366334E-003 
 1.561633320023063E-003  1.581276249063214E-003  1.601166255734412E-003  1.621306447890665E-003 
 1.641699972477976E-003  1.662350016026051E-003  1.683259805146208E-003  1.704432607035538E-003 
 1.725871729987410E-003  1.747580523908408E-003  1.769562380841746E-003  1.791820735497294E-003 
 1.814359065788251E-003  1.837180893374578E-003  1.860289784213270E-003  1.883689349115534E-003 
 1.907383244310993E-003  1.931375172018977E-003  1.955668881027001E-003  1.980268167276526E-003 
 2.005176874456075E-003  2.030398894601822E-003  2.055938168705729E-003  2.081798687331333E-003 
 2.107984491237287E-003  2.134499672008724E-003  2.161348372696586E-003  2.188534788464980E-003 
 2.216063167246680E-003  2.243937810406875E-003  2.272163073415275E-003  2.300743366526649E-003 
 2.329683155469940E-003  2.358986962146052E-003  2.388659365334393E-003  2.418705001408334E-003 
 2.449128565059639E-003  2.479934810032025E-003  2.511128549863946E-003  2.542714658640712E-003 
 2.574698071756085E-003  2.607083786683434E-003  2.639876863756606E-003  2.673082426960610E-003 
 2.706705664732254E-003  2.740751830770849E-003  2.775226244859106E-003  2.810134293694364E-003 
 2.845481431730273E-003  2.881273182029066E-003  2.917515137124549E-003  2.954212959895937E-003 
 2.991372384452702E-003  3.028999217030533E-003  3.067099336898570E-003  3.105678697278061E-003 
 3.144743326272553E-003  3.184299327809807E-003  3.224352882595538E-003  3.264910249079168E-003 
 3.305977764431731E-003  3.347561845536051E-003  3.389668989989404E-003  3.432305777118777E-003 
 3.475478869008903E-003  3.519195011543230E-003  3.563461035457970E-003  3.608283857409417E-003 
 3.653670481054696E-003  3.699627998146085E-003  3.746163589639141E-003  3.793284526814707E-003 
 3.840998172415084E-003  3.889311981794473E-003  3.938233504083882E-003  3.987770383370703E-003 
 4.037930359893110E-003  4.088721271249482E-003  4.140151053623056E-003  4.192227743021956E-003 
 4.244959476534862E-003  4.298354493602413E-003  4.352421137304660E-003  4.407167855664680E-003 
 4.462603202968597E-003  4.518735841102218E-003  4.575574540904450E-003  4.633128183537778E-003 
 4.691405761875956E-003  4.750416381909163E-003  4.810169264166843E-003  4.870673745158416E-003 
 4.931939278832132E-003  4.993975438052274E-003  5.056791916094930E-003  5.120398528162602E-003 
 5.184805212917832E-003  5.250022034036148E-003  5.316059181778536E-003  5.382926974583677E-003 
 5.450635860680253E-003  5.519196419719465E-003  5.588619364428149E-003  5.658915542282661E-003 
 5.730095937203802E-003  5.802171671273107E-003  5.875154006470659E-003  5.949054346434814E-003 
 6.023884238244046E-003  6.099655374221186E-003  6.176379593760399E-003  6.254068885177077E-003 
 6.332735387581068E-003  6.412391392773418E-003  6.493049347166995E-003  6.574721853731283E-003 
 6.657421673961593E-003  6.741161729873090E-003  6.825955106019879E-003  6.911815051539491E-003 
 6.998754982223109E-003  7.086788482611777E-003  7.175929308119036E-003  7.266191387180230E-003 
 7.357588823428847E-003  7.450135897900261E-003  7.543847071263141E-003  7.638736986078982E-003 
 7.734820469090031E-003  7.832112533535980E-003  7.930628381499860E-003  8.030383406283335E-003 
 8.131393194811987E-003  8.233673530070776E-003  8.337240393570167E-003  8.442109967843310E-003 
 8.548298638974536E-003  8.655822999159750E-003  8.764699849298991E-003  8.874946201621598E-003 
 8.986579282344434E-003  9.099616534363473E-003  9.214075619979322E-003  9.329974423656974E-003 
 9.447331054820294E-003  9.566163850681682E-003  9.686491379107253E-003  9.808332441518127E-003 
 9.931706075828196E-003  1.005663155941882E-002  1.018312841215099E-002  1.031121639941529E-002 
 1.044091553522033E-002  1.057224608531995E-002  1.070522857037980E-002  1.083988376918374E-002 
 1.097623272188053E-002  1.111429673327143E-002  1.125409737613912E-002  1.139565649461846E-002 
 1.153899620760974E-002  1.168413891223472E-002  1.183110728733631E-002  1.197992429702211E-002 
 1.213061319425267E-002  1.228319752447476E-002  1.243770112930041E-002  1.259414815023221E-002 
 1.275256303243548E-002  1.291297052855784E-002  1.307539570259695E-002  1.323986393381668E-002 
 1.340640092071279E-002  1.357503268502830E-002  1.374578557581944E-002  1.391868627357284E-002 
 1.409376179437427E-002  1.427103949413006E-002  1.445054707284145E-002  1.463231257893284E-002 
 1.481636441363436E-002  1.500273133541964E-002  1.519144246449938E-002  1.538252728737142E-002 
 1.557601566142810E-002  1.577193781962154E-002  1.597032437518755E-002  1.617120632642906E-002 
 1.637461506155965E-002  1.658058236360801E-002  1.678914041538415E-002  1.700032180450797E-002 
 1.721415952850117E-002  1.743068699994317E-002  1.764993805169191E-002  1.787194694217032E-002 
 1.809674836071920E-002  1.832437743301756E-002  1.855486972657107E-002  1.878826125626952E-002 
 1.902458849001428E-002  1.926388835441644E-002  1.950619824056666E-002  1.975155600987764E-002 
 2.000000000000000E-002  2.025156903081269E-002  2.050630241048858E-002  2.076423994163651E-002 
 2.102542192752050E-002  2.128988917835719E-002  2.155768301769263E-002  2.182884528885904E-002 
 2.210341836151296E-002  2.238144513825563E-002  2.266296906133653E-002  2.294803411944145E-002 
 2.323668485456567E-002  2.352896636897382E-002  2.382492433224718E-002  2.412460498841961E-002 
 2.442805516320340E-002  2.473532227130570E-002  2.504645432383730E-002  2.536149993581441E-002 
 2.568050833375483E-002  2.600352936336982E-002  2.633061349735244E-002  2.666181184326407E-002 
 2.699717615152008E-002  2.733675882347593E-002  2.768061291961503E-002  2.802879216783948E-002 
 2.838135097186516E-002  2.873834441972251E-002  2.909982829236403E-002  2.946585907238032E-002 
 2.983649395282541E-002  3.021179084615347E-002  3.059180839326760E-002  3.097660597268266E-002 
 3.136624370980338E-002  3.176078248631888E-002  3.216028394971568E-002  3.256481052291022E-002 
 3.297442541400256E-002  3.338919262615286E-002  3.380917696758184E-002  3.423444406169731E-002 
 3.466506035734793E-002  3.510109313920597E-002  3.554261053828078E-002  3.598968154256418E-002 
 3.644237600781020E-002  3.690076466845002E-002  3.736491914864445E-002  3.783491197347540E-002 
 3.831081658027793E-002  3.879270733011510E-002  3.928065951939697E-002  3.977474939164584E-002 
 4.027505414940954E-002  4.078165196632431E-002  4.129462199932975E-002  4.181404440103714E-002 
 4.234000033225350E-002  4.287257197466319E-002  4.341184254366886E-002  4.395789630139406E-002 
 4.451081856984938E-002  4.507069574426417E-002  4.563761530658608E-002  4.621166583915010E-002 
 4.679293703851984E-002  4.738151972950283E-002  4.797750587934196E-002  4.858098861208578E-002 
 4.919206222313902E-002  4.981082219399664E-002  5.043736520716299E-002  5.107178916125853E-002 
 5.171419318631694E-002  5.236467765927404E-002  5.302334421965216E-002  5.369029578544145E-002 
 5.436563656918090E-002  5.504947209424214E-002  5.574190921131703E-002  5.644305611511399E-002 
 5.715302236126332E-002  5.787191888343522E-002  5.859985801067410E-002  5.933695348494937E-002 
 6.008332047892864E-002  6.083907561397331E-002  6.160433697836062E-002  6.237922414573591E-002 
 6.316385819379539E-002  6.395836172320549E-002  6.476285887675927E-002  6.557747535877347E-002 
 6.640233845473102E-002  6.723757705116860E-002  6.808332165581636E-002  6.893970441798954E-002 
 6.980685914923683E-002  7.068492134424947E-002  7.157402820203161E-002  7.247431864733882E-002 
 7.338593335238493E-002  7.430901475882208E-002  7.524370709999829E-002  7.619015642349325E-002 
 7.714851061393946E-002  7.811891941612910E-002  7.910153445841155E-002  8.009650927638658E-002 
 8.110399933689352E-002  8.212416206230422E-002  8.315715685512021E-002  8.420314512287920E-002 
 8.526229030337644E-002  8.633475789020090E-002  8.742071545859513E-002  8.852033269163875E-002 
 8.963378140676129E-002  9.076123558259015E-002  9.190287138613380E-002  9.305886720030937E-002 
 9.422940365181490E-002  9.541466363935205E-002  9.661483236220567E-002  9.783009734918012E-002 
 9.906064848790226E-002  1.003066780544913E-001  1.015683807436016E-001  1.028459536988458E-001 
 1.041395965435970E-001  1.054495114121818E-001  1.067759029814636E-001  1.081189785028233E-001 
 1.094789478345441E-001  1.108560234746005E-001  1.122504205938631E-001  1.136623570697190E-001 
 1.150920535201146E-001  1.165397333380296E-001  1.180056227263804E-001  1.194899507333664E-001 
 1.209929492882590E-001  1.225148532376397E-001  1.240559003820974E-001  1.256163315133833E-001 
 1.271963904520366E-001  1.287963240854813E-001  1.304163824066022E-001  1.320568185528087E-001 
 1.337178888455854E-001  1.353998528305455E-001  1.371029733179837E-001  1.388275164239407E-001 
 1.405737516117860E-001  1.423419517343199E-001  1.441323930764093E-001  1.459453553981567E-001 
 1.477811219786130E-001  1.496399796600417E-001  1.515222188927370E-001  1.534281337804085E-001 
 1.553580221261356E-001  1.573121854788978E-001  1.592909291806956E-001  1.612945624142575E-001 
 1.633233982513529E-001  1.653777537017095E-001  1.674579497625453E-001  1.695643114687276E-001 
 1.716971679435579E-001  1.738568524502000E-001  1.760437024437523E-001  1.782580596239748E-001 
 1.805002699886826E-001  1.827706838878066E-001  1.850696560781378E-001  1.873975457787587E-001 
 1.897547167271705E-001  1.921415372361302E-001  1.945583802511978E-001  1.970056234090116E-001 
 1.994836490962945E-001  2.019928445096011E-001  2.045336017158202E-001  2.071063177134339E-001 
 2.097113944945514E-001  2.123492391077202E-001  2.150202637215271E-001  2.177248856890030E-001 
 2.204635276128321E-001  2.232366174113873E-001  2.260445883855918E-001  2.288878792866224E-001 
 2.317669343844680E-001  2.346822035373443E-001  2.376341422619879E-001  2.406232118048308E-001 
 2.436498792140695E-001  2.467146174126453E-001  2.498179052721363E-001  2.529602276875844E-001 
 2.561420756532609E-001  2.593639463393826E-001  2.626263431698006E-001  2.659297759006558E-001 
 2.692747607000342E-001  2.726618202286153E-001  2.760914837213419E-001  2.795642870701129E-001 
 2.830807729075162E-001  2.866414906916190E-001  2.902469967918185E-001  2.938978545757788E-001 
 2.975946344974570E-001  3.013379141862358E-001  3.051282785371836E-001  3.089663198024405E-001 
 3.128526376837634E-001  3.167878394262286E-001  3.207725399131135E-001  3.248073617619772E-001 
 3.288929354219413E-001  3.330298992722029E-001  3.372188997217810E-001  3.414605913105172E-001 
 3.457556368113533E-001  3.501047073338858E-001  3.545084824292328E-001  3.589676501962131E-001 
 3.634829073888614E-001  3.680549595253014E-001  3.726845209979803E-001  3.773723151852977E-001 
 3.821190745646333E-001  3.869255408267964E-001  3.917924649919204E-001  3.967206075268067E-001 
 4.017107384637534E-001  4.067636375208725E-001  4.118800942239207E-001  4.170609080296687E-001 
 4.223068884508125E-001  4.276188551824668E-001  4.329976382302415E-001  4.384440780399295E-001 
 4.439590256288333E-001  4.495433427187325E-001  4.551979018705346E-001  4.609235866206120E-001 
 4.667212916188545E-001  4.725919227684650E-001  4.785363973675030E-001  4.845556442522196E-001 
 4.906506039421875E-001  4.968222287872570E-001  5.030714831163680E-001  5.093993433882219E-001 
 5.158067983438612E-001  5.222948491611599E-001  5.288645096112561E-001  5.355168062169632E-001 
 5.422527784131581E-001  5.490734787092020E-001  5.559799728533938E-001  5.629733399994931E-001 
 5.700546728753464E-001  5.772250779536207E-001  5.844856756246988E-001  5.918376003717396E-001 
 5.992820009479405E-001  6.068200405560392E-001  6.144528970300587E-001  6.221817630193532E-001 
 6.300078461749593E-001  6.379323693382900E-001  6.459565707322145E-001  6.540817041545235E-001 
 6.623090391738462E-001  6.706398613280193E-001  6.790754723249510E-001  6.876171902460245E-001 
 6.962663497520409E-001  7.050243022917708E-001  7.138924163131182E-001  7.228720774769387E-001 
 7.319646888735608E-001  7.411716712420119E-001  7.504944631920201E-001  7.599345214287960E-001 
 7.694933209806427E-001  7.791723554294404E-001  7.889731371440111E-001  7.988971975164386E-001 
 8.089460872013486E-001  8.191213763581960E-001  8.294246548966163E-001  8.398575327248402E-001 
 8.504216400012556E-001  8.611186273891193E-001  8.719501663144702E-001  8.829179492273057E-001 
 8.940236898660171E-001  9.052691235251753E-001  9.166560073266703E-001  9.281861204942595E-001 
 9.398612646315869E-001  9.516832640036741E-001  9.636539658219764E-001  9.757752405330092E-001 
 9.880489821106038E-001  1.000477108351856E+000  1.013061561176773E+000  1.025804306931714E+000 
 1.038707336696630E+000  1.051772666596169E+000  1.065002338114714E+000  1.078398418415351E+000 
 1.091963000662885E+000  1.105698204350890E+000  1.119606175632883E+000  1.133689087657678E+000 
 1.147949140908925E+000  1.162388563548960E+000  1.177009611766949E+000  1.191814570131420E+000 
 1.206805751947241E+000  1.221985499617067E+000  1.237356185007358E+000  1.252920209818978E+000 
 1.268680005962467E+000  1.284638035938039E+000  1.300796793220340E+000  1.317158802648074E+000 
 1.333726620818504E+000  1.350502836486923E+000  1.367490070971164E+000  1.384690978561173E+000 
 1.402108246933757E+000  1.419744597572539E+000  1.437602786193181E+000  1.455685603173995E+000 
 1.473995873991917E+000  1.492536459664018E+000  1.511310257194534E+000  1.530320200027518E+000 
 1.549569258505219E+000  1.569060440332183E+000  1.588796791045227E+000  1.608781394489306E+000 
 1.629017373299363E+000  1.649507889388262E+000  1.670256144440825E+000  1.691265380414120E+000 
 1.712538880044013E+000  1.734079967358098E+000  1.755892008195098E+000  1.777978410730767E+000 
 1.800342626010436E+000  1.822988148488249E+000  1.845918516573158E+000  1.869137313181835E+000 
 1.892648166298483E+000  1.916454749541737E+000  1.940560782738669E+000  1.964970032506001E+000 
 1.989686312838679E+000  2.014713485705782E+000  2.040055461653994E+000  2.065716200418617E+000 
 2.091699711542284E+000  2.118010055001481E+000  2.144651341840891E+000  2.171627734815792E+000 
 2.198943449042472E+000  2.226602752656847E+000  2.254609967481386E+000  2.282969469700381E+000 
 2.311685690543753E+000  2.340763116979438E+000  2.370206292414467E+000  2.400019817404911E+000 
 2.430208350374699E+000  2.460776608343531E+000  2.491729367663909E+000  2.523071464767443E+000 
 2.554807796920580E+000  2.586943322989780E+000  2.619483064216372E+000  2.652432105001133E+000 
 2.685795593698710E+000  2.719578743422102E+000  2.753786832857175E+000  2.788425207087503E+000 
 2.823499278429540E+000  2.859014527278280E+000  2.894976502963623E+000  2.931390824617424E+000 
 2.968263182051532E+000  3.005599336646820E+000  3.043405122253392E+000  3.081686446102178E+000 
 3.120449289727902E+000  3.159699709903749E+000  3.199443839587734E+000  3.239687888880967E+000 
 3.280438145998040E+000  3.321700978249522E+000  3.363482833036909E+000  3.405790238860023E+000 
 3.448629806337087E+000  3.492008229237689E+000  3.535932285528649E+000  3.580408838433133E+000 
 3.625444837503027E+000  3.671047319704800E+000  3.717223410519086E+000  3.763980325054010E+000 
 3.811325369172600E+000  3.859265940634332E+000  3.907809530251019E+000  3.956963723057315E+000 
 4.006736199495837E+000  4.057134736617297E+000  4.108167209295667E+000  4.159841591458613E+000 
 4.212165957333495E+000  4.265148482708921E+000  4.318797446212282E+000  4.373121230603283E+000 
 4.428128324083743E+000  4.483827321623946E+000  4.540226926305562E+000  4.597335950681577E+000 
 4.655163318153246E+000  4.713718064364373E+000  4.773009338613197E+000  4.833046405281936E+000 
 4.893838645284408E+000  4.955395557531807E+000  5.017726760416892E+000  5.080841993316946E+000 
 5.144751118115499E+000  5.209464120743336E+000  5.274991112738785E+000  5.341342332827643E+000 
 5.408528148523060E+000  5.476559057745411E+000  5.545445690462680E+000  5.615198810351391E+000 
 5.685829316478419E+000  5.757348245004067E+000  5.829766770906404E+000  5.903096209727446E+000 
 5.977348019341211E+000  6.052533801743997E+000  6.128665304867292E+000  6.205754424413328E+000 
 6.283813205713884E+000  6.362853845612361E+000  6.442888694369531E+000  6.523930257593366E+000 
 6.605991198192978E+000  6.689084338357301E+000  6.773222661558552E+000  6.858419314580888E+000 
 6.944687609574702E+000  7.032041026136576E+000  7.120493213415582E+000  7.210057992245954E+000 
 7.300749357306578E+000  7.392581479307784E+000  7.485568707205443E+000  7.579725570443111E+000 
 7.675066781222244E+000  7.771607236800976E+000  7.869362021821929E+000  7.968346410669119E+000 
 8.068575869854703E+000  8.170066060435611E+000  8.272832840460575E+000  8.376892267448087E+000 
 8.482260600895291E+000  8.588954304818678E+000  8.696990050326573E+000  8.806384718223978E+000 
 8.917155401650351E+000  9.029319408750311E+000  9.142894265378180E+000  9.257897717836391E+000 
 9.374347735648341E+000  9.492262514366258E+000  9.611660478414187E+000  9.732560283966944E+000 
 9.854980821865135E+000  9.978941220566840E+000  1.010446084913659E+001  1.023155932027168E+001 
 1.036025649336684E+001  1.049057247761721E+001  1.062252763516042E+001  1.075614258425835E+001 
 1.089143820251859E+001  1.102843563015677E+001  1.116715627329972E+001  1.130762180733010E+001 
 1.144985418027344E+001  1.159387561622733E+001  1.173970861883418E+001  1.188737597479737E+001 
 1.203690075744164E+001  1.218830633031856E+001  1.234161635085687E+001  1.249685477405922E+001 
 1.265404585624508E+001  1.281321415884082E+001  1.297438455221758E+001  1.313758221957720E+001 
 1.330283266088724E+001  1.347016169686539E+001  1.363959547301391E+001  1.381116046370509E+001 
 1.398488347631772E+001  1.416079165542599E+001  1.433891248704080E+001  1.451927380290443E+001 
 1.470190378483948E+001  1.488683096915214E+001  1.507408425109123E+001  1.526369288936303E+001 
 1.545568651070300E+001  1.565009511450513E+001  1.584694907750924E+001  1.604627915854758E+001 
 1.624811650335088E+001  1.645249264941485E+001  1.665943953092818E+001  1.686898948376207E+001 
 1.708117525052303E+001  1.729602998566883E+001  1.751358726068892E+001  1.773388106935018E+001 
 1.795694583300837E+001  1.818281640598665E+001  1.841152808102162E+001  1.864311659477777E+001 
 1.887761813343160E+001  1.911506933832555E+001  1.935550731169353E+001  1.959896962245809E+001 