
     Program PWSCF v.5.4.0 starts on 12May2018 at  8:24:47 

     This program is part of the open-source Quantum ESPRESSO suite
     for quantum simulation of materials; please cite
         "P. Giannozzi et al., J. Phys.:Condens. Matter 21 395502 (2009);
          URL http://www.quantum-espresso.org", 
     in publications or presentations arising from this work. More details at
     http://www.quantum-espresso.org/quote

     Parallel version (MPI), running on     4 processors
     R & G space division:  proc/nbgrp/npool/nimage =       4
     Reading input from scf.in
Warning: card &IONS ignored
Warning: card     ION_DYNAMICS='DAMP' ignored
Warning: card     POT_EXTRAPOLATION='SECOND_ORDER' ignored
Warning: card     WFC_EXTRAPOLATION='SECOND_ORDER' ignored
Warning: card / ignored

     Current dimensions of program PWSCF are:
     Max number of different atomic species (ntypx) = 10
     Max number of k-points (npk) =  40000
     Max angular momentum in pseudopotentials (lmaxx) =  3
               file Sn.pbesol-dn-rrkjus.UPF: wavefunction(s)  5S 4D renormalized
               file O.pbesol-nl-rrkjus.UPF: wavefunction(s)  2S renormalized

     Subspace diagonalization in iterative solution of the eigenvalue problem:
     a serial algorithm will be used

     Found symmetry operation: I + ( -0.5000  0.0000  0.0000)
     This is a supercell, fractional translations are disabled

     Parallelization info
     --------------------
     sticks:   dense  smooth     PW     G-vecs:    dense   smooth      PW
     Min        3840    1537    412               241543    61119    8520
     Max        3841    1538    413               241544    61134    8523
     Sum       15361    6149   1649               966175   244503   34087



     bravais-lattice index     =            0
     lattice parameter (alat)  =      17.9500  a.u.
     unit-cell volume          =    3892.3190 (a.u.)^3
     number of atoms/cell      =           48
     number of atomic types    =            2
     number of electrons       =       416.00
     number of Kohn-Sham states=          256
     kinetic-energy cutoff     =      60.0000  Ry
     charge density cutoff     =     600.0000  Ry
     convergence threshold     =      2.0E-09
     mixing beta               =       0.7000
     number of iterations used =            8  plain     mixing
     Exchange-correlation      = PBESOL ( 1  4 10  8 0 0)

     celldm(1)=  17.950000  celldm(2)=   0.000000  celldm(3)=   0.000000
     celldm(4)=   0.000000  celldm(5)=   0.000000  celldm(6)=   0.000000

     crystal axes: (cart. coord. in units of alat)
               a(1) = (   1.000000   0.000000   0.000000 )  
               a(2) = (   0.000000   1.000000   0.000000 )  
               a(3) = (   0.000000   0.000000   0.673000 )  

     reciprocal axes: (cart. coord. in units 2 pi/alat)
               b(1) = (  1.000000  0.000000  0.000000 )  
               b(2) = (  0.000000  1.000000  0.000000 )  
               b(3) = (  0.000000  0.000000  1.485884 )  


     PseudoPot. # 1 for Sn read from file:
     /home/raja/pseudo/Sn.pbesol-dn-rrkjus.UPF
     MD5 check sum: b150398e14deaf400293d9009fcc5675
     Pseudo is Ultrasoft + core correction, Zval = 14.0
     Generated using "atomic" code by A. Dal Corso  v.5.4.0
     Using radial grid of 1243 points,  6 beta functions with: 
                l(1) =   0
                l(2) =   0
                l(3) =   1
                l(4) =   1
                l(5) =   2
                l(6) =   2
     Q(r) pseudized with 0 coefficients 


     PseudoPot. # 2 for  O read from file:
     /home/raja/pseudo/O.pbesol-nl-rrkjus.UPF
     MD5 check sum: c80495934389d02e713646931b6a7a51
     Pseudo is Ultrasoft + core correction, Zval =  6.0
     Generated using "atomic" code by A. Dal Corso  v.5.4.0
     Using radial grid of 1095 points,  4 beta functions with: 
                l(1) =   0
                l(2) =   0
                l(3) =   1
                l(4) =   1
     Q(r) pseudized with 0 coefficients 


     atomic species   valence    mass     pseudopotential
        Sn            14.00   118.71000     Sn( 1.00)
        O              6.00    15.99900      O( 1.00)

      8 Sym. Ops., with inversion, found



   Cartesian axes

     site n.     atom                  positions (alat units)
         1           Sn  tau(   1) = (   0.0000000   0.0000000   0.0000000  )
         2           Sn  tau(   2) = (   0.5000000   0.0000000   0.0000000  )
         3           Sn  tau(   3) = (   0.0000000   0.5000000   0.0000000  )
         4           Sn  tau(   4) = (   0.5000000   0.5000000   0.0000000  )
         5           Sn  tau(   5) = (   0.0000000   0.0000000   0.3365000  )
         6           Sn  tau(   6) = (   0.5000000   0.0000000   0.3365000  )
         7           Sn  tau(   7) = (   0.0000000   0.5000000   0.3365000  )
         8           Sn  tau(   8) = (   0.5000000   0.5000000   0.3365000  )
         9           Sn  tau(   9) = (   0.2500000   0.2500000   0.1682500  )
        10           Sn  tau(  10) = (   0.7500000   0.2500000   0.1682500  )
        11           Sn  tau(  11) = (   0.2500000   0.7500000   0.1682500  )
        12           Sn  tau(  12) = (   0.7500000   0.7500000   0.1682500  )
        13           Sn  tau(  13) = (   0.2500000   0.2500000   0.5047500  )
        14           Sn  tau(  14) = (   0.7500000   0.2500000   0.5047500  )
        15           Sn  tau(  15) = (   0.2500000   0.7500000   0.5047500  )
        16           Sn  tau(  16) = (   0.7500000   0.7500000   0.5047500  )
        17           O   tau(  17) = (   0.1535000   0.1535000   0.0000000  )
        18           O   tau(  18) = (   0.6535000   0.1535000   0.0000000  )
        19           O   tau(  19) = (   0.1535000   0.6535000   0.0000000  )
        20           O   tau(  20) = (   0.6535000   0.6535000   0.0000000  )
        21           O   tau(  21) = (   0.1535000   0.1535000   0.3365000  )
        22           O   tau(  22) = (   0.6535000   0.1535000   0.3365000  )
        23           O   tau(  23) = (   0.1535000   0.6535000   0.3365000  )
        24           O   tau(  24) = (   0.6535000   0.6535000   0.3365000  )
        25           O   tau(  25) = (   0.3465000   0.3465000   0.0000000  )
        26           O   tau(  26) = (   0.8465000   0.3465000   0.0000000  )
        27           O   tau(  27) = (   0.3465000   0.8465000   0.0000000  )
        28           O   tau(  28) = (   0.8465000   0.8465000   0.0000000  )
        29           O   tau(  29) = (   0.3465000   0.3465000   0.3365000  )
        30           O   tau(  30) = (   0.8465000   0.3465000   0.3365000  )
        31           O   tau(  31) = (   0.3465000   0.8465000   0.3365000  )
        32           O   tau(  32) = (   0.8465000   0.8465000   0.3365000  )
        33           O   tau(  33) = (   0.0965000   0.4035000   0.1682500  )
        34           O   tau(  34) = (   0.5965000   0.4035000   0.1682500  )
        35           O   tau(  35) = (   0.0965000   0.9035000   0.1682500  )
        36           O   tau(  36) = (   0.5965000   0.9035000   0.1682500  )
        37           O   tau(  37) = (   0.0965000   0.4035000   0.5047500  )
        38           O   tau(  38) = (   0.5965000   0.4035000   0.5047500  )
        39           O   tau(  39) = (   0.0965000   0.9035000   0.5047500  )
        40           O   tau(  40) = (   0.5965000   0.9035000   0.5047500  )
        41           O   tau(  41) = (   0.4035000   0.0965000   0.1682500  )
        42           O   tau(  42) = (   0.9035000   0.0965000   0.1682500  )
        43           O   tau(  43) = (   0.4035000   0.5965000   0.1682500  )
        44           O   tau(  44) = (   0.9035000   0.5965000   0.1682500  )
        45           O   tau(  45) = (   0.4035000   0.0965000   0.5047500  )
        46           O   tau(  46) = (   0.9035000   0.0965000   0.5047500  )
        47           O   tau(  47) = (   0.4035000   0.5965000   0.5047500  )
        48           O   tau(  48) = (   0.9035000   0.5965000   0.5047500  )

     number of k points=    18
                       cart. coord. in units 2pi/alat
        k(    1) = (   0.1250000   0.1250000   0.1238237), wk =   0.0833333
        k(    2) = (   0.1250000   0.1250000   0.3714710), wk =   0.0833333
        k(    3) = (   0.1250000   0.1250000   0.6191184), wk =   0.0833333
        k(    4) = (   0.1250000   0.3750000   0.1238237), wk =   0.1666667
        k(    5) = (   0.1250000   0.3750000   0.3714710), wk =   0.1666667
        k(    6) = (   0.1250000   0.3750000   0.6191184), wk =   0.1666667
        k(    7) = (   0.3750000   0.3750000   0.1238237), wk =   0.0833333
        k(    8) = (   0.3750000   0.3750000   0.3714710), wk =   0.0833333
        k(    9) = (   0.3750000   0.3750000   0.6191184), wk =   0.0833333
        k(   10) = (  -0.1250000   0.1250000  -0.1238237), wk =   0.0833333
        k(   11) = (  -0.1250000   0.1250000  -0.3714710), wk =   0.0833333
        k(   12) = (  -0.1250000   0.1250000  -0.6191184), wk =   0.0833333
        k(   13) = (  -0.1250000   0.3750000  -0.1238237), wk =   0.1666667
        k(   14) = (  -0.1250000   0.3750000  -0.3714710), wk =   0.1666667
        k(   15) = (  -0.1250000   0.3750000  -0.6191184), wk =   0.1666667
        k(   16) = (  -0.3750000   0.3750000  -0.1238237), wk =   0.0833333
        k(   17) = (  -0.3750000   0.3750000  -0.3714710), wk =   0.0833333
        k(   18) = (  -0.3750000   0.3750000  -0.6191184), wk =   0.0833333

     Dense  grid:   966175 G-vectors     FFT dimensions: ( 144, 144,  96)

     Smooth grid:   244503 G-vectors     FFT dimensions: (  90,  90,  60)

     Largest allocated arrays     est. size (Mb)     dimensions
        Kohn-Sham Wavefunctions        29.86 Mb     (    7645,  256)
        NL pseudopotentials            63.46 Mb     (    7645,  544)
        Each V/rho on FFT grid          7.59 Mb     (  497664)
        Each G-vector array             1.84 Mb     (  241544)
        G-vector shells                 0.33 Mb     (   43143)
     Largest temporary arrays     est. size (Mb)     dimensions
        Auxiliary wavefunctions       119.45 Mb     (    7645, 1024)
        Each subspace H/S matrix       16.00 Mb     (    1024, 1024)
        Each <psi_i|beta_j> matrix      2.12 Mb     (     544,  256)
        Arrays for rho mixing          60.75 Mb     (  497664,    8)

     Initial potential from superposition of free atoms

     starting charge  415.97986, renormalised to  416.00000
     Starting wfc are  272 randomized atomic wfcs

     total cpu time spent up to now is      330.2 secs

     per-process dynamical memory:   754.9 Mb

     Self-consistent Calculation

     iteration #  1     ecut=    60.00 Ry     beta=0.70
     Davidson diagonalization with overlap
     ethr =  1.00E-02,  avg # of iterations =  3.1

     total cpu time spent up to now is     1298.2 secs

     total energy              =   -3632.60708507 Ry
     Harris-Foulkes estimate   =   -3641.58170407 Ry
     estimated scf accuracy    <      11.97632812 Ry

     iteration #  2     ecut=    60.00 Ry     beta=0.70
     Davidson diagonalization with overlap
     ethr =  2.88E-03,  avg # of iterations =  3.3

     total cpu time spent up to now is     2578.5 secs

     total energy              =   -3635.56616040 Ry
     Harris-Foulkes estimate   =   -3641.95909883 Ry
     estimated scf accuracy    <      13.23914150 Ry

     iteration #  3     ecut=    60.00 Ry     beta=0.70
     Davidson diagonalization with overlap
     ethr =  2.88E-03,  avg # of iterations =  2.9

     total cpu time spent up to now is     3583.2 secs

     total energy              =   -3638.17782086 Ry
     Harris-Foulkes estimate   =   -3638.18495341 Ry
     estimated scf accuracy    <       0.03903673 Ry

     iteration #  4     ecut=    60.00 Ry     beta=0.70
     Davidson diagonalization with overlap
     ethr =  9.38E-06,  avg # of iterations =  8.9

     total cpu time spent up to now is     5256.8 secs

     total energy              =   -3638.19426362 Ry
     Harris-Foulkes estimate   =   -3638.19459043 Ry
     estimated scf accuracy    <       0.00100547 Ry

     iteration #  5     ecut=    60.00 Ry     beta=0.70
     Davidson diagonalization with overlap
     ethr =  2.42E-07,  avg # of iterations =  6.1

     total cpu time spent up to now is     6322.1 secs

     total energy              =   -3638.19441004 Ry
     Harris-Foulkes estimate   =   -3638.19441185 Ry
     estimated scf accuracy    <       0.00006891 Ry

     iteration #  6     ecut=    60.00 Ry     beta=0.70
     Davidson diagonalization with overlap
     ethr =  1.66E-08,  avg # of iterations =  2.9

     total cpu time spent up to now is     7381.1 secs

     total energy              =   -3638.19442079 Ry
     Harris-Foulkes estimate   =   -3638.19442390 Ry
     estimated scf accuracy    <       0.00000805 Ry

     iteration #  7     ecut=    60.00 Ry     beta=0.70
     Davidson diagonalization with overlap
     ethr =  1.93E-09,  avg # of iterations =  3.0

     total cpu time spent up to now is     8449.0 secs

     total energy              =   -3638.19442216 Ry
     Harris-Foulkes estimate   =   -3638.19442551 Ry
     estimated scf accuracy    <       0.00000887 Ry

     iteration #  8     ecut=    60.00 Ry     beta=0.70
     Davidson diagonalization with overlap
     ethr =  1.93E-09,  avg # of iterations =  2.1

     total cpu time spent up to now is     9347.7 secs

     total energy              =   -3638.19442368 Ry
     Harris-Foulkes estimate   =   -3638.19442370 Ry
     estimated scf accuracy    <       0.00000004 Ry

     iteration #  9     ecut=    60.00 Ry     beta=0.70
     Davidson diagonalization with overlap
     ethr =  9.46E-12,  avg # of iterations =  3.0

     total cpu time spent up to now is    10703.8 secs

     total energy              =   -3638.19442370 Ry
     Harris-Foulkes estimate   =   -3638.19442372 Ry
     estimated scf accuracy    <       0.00000004 Ry

     iteration # 10     ecut=    60.00 Ry     beta=0.70
     Davidson diagonalization with overlap
     ethr =  8.65E-12,  avg # of iterations =  2.9

     total cpu time spent up to now is    11617.4 secs

     End of self-consistent calculation

          k = 0.1250 0.1250 0.1238 ( 30546 PWs)   bands (ev):

   -11.6889 -11.6227 -11.6226 -11.6034 -11.6034 -11.4888 -11.4772 -11.4529
   -11.4525 -11.4401 -11.4322 -11.4322 -11.4247 -11.2834 -11.2834 -11.0060
   -10.9831 -10.9619 -10.9295 -10.8657 -10.7186 -10.7186 -10.7017 -10.7017
   -10.6980 -10.6980 -10.6839 -10.6816 -10.6786 -10.6761 -10.6732 -10.6732
   -10.6708 -10.6517 -10.6478 -10.6405 -10.6405 -10.6308 -10.6308 -10.5818
   -10.5296 -10.5296 -10.5296 -10.5265 -10.5260 -10.5260 -10.5260 -10.5244
   -10.5236 -10.4934 -10.4934 -10.4826 -10.4793 -10.4769 -10.4769 -10.4738
   -10.4635 -10.4635 -10.4633 -10.4629 -10.4626 -10.4613 -10.4613 -10.4461
   -10.4314 -10.4238 -10.4237 -10.4223 -10.4223 -10.4189 -10.4178 -10.4166
   -10.4160 -10.4159 -10.4156 -10.4147 -10.4125 -10.4125 -10.4085 -10.4085
    -9.4608  -8.8740  -8.8740  -8.5214  -8.5214  -8.1085  -8.1022  -8.1022
    -8.0708  -7.9878  -7.9878  -7.7176  -7.6821  -7.6752  -7.6075  -7.6026
    -7.6020  -7.5419  -7.2864  -6.7608  -6.7608  -6.4088  -6.4088  -6.2272
    -6.1793  -6.1502  -6.1098  -5.9707  -5.9707  -5.9374  -5.9374  -5.8870
     1.2497   1.3589   1.4151   1.8210   2.2131   2.2131   2.4003   2.4063
     2.4064   2.4561   2.4561   3.1754   3.1754   3.5515   3.8049   3.8064
     3.8064   3.9971   3.9971   4.3683   4.3688   5.0033   5.0837   5.0937
     5.0938   5.1573   5.1975   5.2015   5.2015   5.3018   5.4229   5.4494
     5.6302   5.7214   5.7695   5.7695   6.0670   6.1411   6.1411   6.2974
     6.3057   6.3745   6.3745   6.3990   6.7054   6.7770   6.8584   6.8584
     6.8861   7.0731   7.1086   7.2101   7.2101   7.2762   7.3584   7.4867
     7.5472   7.5621   7.5648   7.5648   7.6305   7.6305   7.7062   7.7062
     7.9597   8.0436   8.0675   8.0886   8.1237   8.1255   8.1255   8.1376
     8.1543   8.1544   8.1619   8.2396   8.2396   8.3275   8.3275   8.3899
     8.3970   8.4775   8.4913   8.5217   8.5323   8.5378   8.5378   8.5495
     8.6411   8.6487   8.6487   8.7079   8.7079   8.7924   8.7924   9.3320
    10.8053  13.2783  13.2783  13.9496  14.0849  14.0849  14.1013  14.1891
    14.2185  15.1565  15.2836  15.4563  15.4563  15.6508  15.6508  15.6733
    15.6754  15.6906  16.2933  16.2933  16.3684  16.3684  16.7329  16.7458
    17.2812  17.2812  17.5596  17.5596  18.0190  18.1859  18.4608  19.1286
    19.3976  19.7530  19.8756  20.0204  20.0204  20.0713  20.0945  20.0945
    20.0995  20.1203  20.1755  20.1756  20.1878  20.1878  20.2112  20.2411

          k = 0.1250 0.1250 0.3715 ( 30556 PWs)   bands (ev):

   -11.6237 -11.5557 -11.5557 -11.5335 -11.5335 -11.4134 -11.4072 -11.3905
   -11.3905 -11.3872 -11.3705 -11.3609 -11.3583 -11.2531 -11.2531 -11.1465
   -11.0373 -10.9761 -10.8928 -10.8113 -10.8107 -10.8060 -10.8059 -10.8059
   -10.8046 -10.8046 -10.8035 -10.7757 -10.7757 -10.7693 -10.6912 -10.6912
   -10.6503 -10.6305 -10.6260 -10.6161 -10.6161 -10.5997 -10.5997 -10.5834
   -10.5288 -10.5288 -10.5243 -10.5228 -10.5228 -10.5147 -10.5130 -10.5127
   -10.5110 -10.4907 -10.4907 -10.4866 -10.4803 -10.4787 -10.4770 -10.4755
   -10.4755 -10.4708 -10.4708 -10.4661 -10.4647 -10.4647 -10.4647 -10.4644
   -10.4620 -10.4548 -10.4526 -10.4526 -10.4511 -10.4497 -10.4497 -10.4465
   -10.4358 -10.4358 -10.4343 -10.4342 -10.4341 -10.4336 -10.4333 -10.4332
    -9.3881  -8.7639  -8.7639  -8.5613  -8.3896  -8.3896  -8.2497  -8.2497
    -7.9965  -7.9711  -7.9711  -7.7133  -7.6689  -7.6110  -7.4954  -7.4011
    -7.3859  -7.1748  -7.0652  -6.6549  -6.6549  -6.4167  -6.3540  -6.3540
    -6.3466  -6.3343  -6.2576  -6.0715  -6.0715  -6.0098  -6.0098  -5.9795
     1.2361   1.4617   1.6332   1.6908   2.2693   2.2693   2.4680   2.4680
     2.6447   2.6447   3.1663   3.1926   3.1926   3.2486   3.4098   3.8882
     3.8882   4.0872   4.0872   4.6741   4.6762   4.9103   5.0487   5.1086
     5.1086   5.3386   5.3386   5.3585   5.3585   5.3799   5.4155   5.4155
     5.4330   5.4832   5.5213   5.5312   5.5723   5.9049   5.9482   6.2390
     6.3843   6.3880   6.4586   6.5556   6.5655   6.6850   6.6850   6.7346
     6.8393   6.9061   6.9349   7.0076   7.0076   7.1994   7.2570   7.2570
     7.3426   7.4180   7.5459   7.6044   7.6595   7.6595   7.6700   7.6700
     7.7478   7.7478   7.9257   7.9257   8.0318   8.0318   8.1565   8.1565
     8.2223   8.3035   8.3102   8.3362   8.3633   8.3698   8.3698   8.3966
     8.4453   8.4453   8.4472   8.5021   8.5382   8.5871   8.5929   8.5937
     8.6374   8.6374   8.6578   8.6578   8.6579   8.7649   8.7649   9.2333
    11.5656  13.6143  13.6143  14.1102  14.2571  14.2659  14.3228  14.3953
    14.3953  14.4731  15.1631  15.1631  15.5620  15.5620  15.5995  16.0518
    16.2221  16.2433  16.7961  16.7961  16.8617  16.8618  17.1312  17.1379
    17.5531  17.5531  17.7724  17.7724  18.0962  18.1296  18.2713  18.7229
    18.9812  19.0766  19.4374  19.4374  19.4857  19.4857  19.7246  19.7246
    19.7575  19.7577  19.7577  19.8364  19.9732  19.9846  20.1244  20.2719

          k = 0.1250 0.1250 0.6191 ( 30540 PWs)   bands (ev):

   -11.5068 -11.4464 -11.4464 -11.4103 -11.4103 -11.3780 -11.3697 -11.3697
   -11.2920 -11.2850 -11.2846 -11.2846 -11.2575 -11.2162 -11.2049 -11.1902
   -11.1385 -11.0467 -11.0217 -11.0143 -11.0055 -10.9889 -10.8945 -10.8945
   -10.8616 -10.8616 -10.8367 -10.8367 -10.7583 -10.7583 -10.7471 -10.7091
   -10.6048 -10.5922 -10.5893 -10.5863 -10.5855 -10.5855 -10.5759 -10.5759
   -10.5483 -10.5483 -10.5452 -10.5449 -10.5449 -10.5376 -10.5322 -10.5289
   -10.5145 -10.5023 -10.4902 -10.4876 -10.4876 -10.4864 -10.4864 -10.4864
   -10.4859 -10.4846 -10.4798 -10.4798 -10.4765 -10.4752 -10.4752 -10.4736
   -10.4702 -10.4682 -10.4639 -10.4639 -10.4604 -10.4595 -10.4594 -10.4583
   -10.4582 -10.4582 -10.4537 -10.4536 -10.4505 -10.4505 -10.4497 -10.4468
    -9.2286  -8.9568  -8.5983  -8.5983  -8.4209  -8.4209  -8.2041  -8.2041
    -8.0478  -8.0478  -7.8689  -7.7767  -7.6473  -7.6255  -7.1370  -7.0862
    -7.0363  -6.9392  -6.8422  -6.7463  -6.6551  -6.6296  -6.4690  -6.4689
    -6.3600  -6.2538  -6.2538  -6.2530  -6.2530  -6.1630  -6.1272  -6.1271
     1.2307   1.2833   2.1224   2.1891   2.3821   2.3821   2.4579   2.4579
     2.7153   2.8089   2.9656   2.9656   3.1619   3.1619   4.0983   4.1094
     4.1094   4.2399   4.2399   4.5338   4.5338   4.6422   4.6422   4.8617
     4.8954   5.1717   5.2139   5.2148   5.5437   5.6673   5.6993   5.7264
     5.7814   5.7981   5.8154   5.8154   5.8738   5.8738   5.9011   5.9793
     6.0709   6.1378   6.2310   6.2438   6.3750   6.3750   6.4755   6.4897
     6.4897   6.6204   6.7471   6.7769   6.9050   6.9246   6.9697   6.9922
     7.2159   7.2197   7.5035   7.5035   7.6924   7.6924   7.7507   7.7507
     7.8044   7.8044   7.8963   7.8963   8.0205   8.0205   8.0927   8.0927
     8.3019   8.3019   8.3050   8.3614   8.4502   8.4502   8.4609   8.4770
     8.4826   8.4886   8.5158   8.5295   8.5564   8.5564   8.5817   8.6046
     8.6406   8.6407   8.6528   8.6566   8.7024   8.7024   8.7295   9.0284
    12.5945  13.6063  14.1444  14.1444  14.2877  14.3376  14.4160  14.4315
    14.7012  14.7012  14.8606  14.8606  15.2914  15.2914  15.9836  16.1715
    17.1248  17.1596  17.6062  17.6062  17.6189  17.6189  17.7309  17.7327
    17.9679  17.9679  17.9835  18.0478  18.0478  18.1302  18.1470  18.1701
    18.1994  18.2136  18.6623  18.6623  18.7397  18.7398  19.1312  19.1312
    19.2199  19.2199  19.4005  19.4695  19.7795  19.9036  20.1780  20.3273

          k = 0.1250 0.3750 0.1238 ( 30522 PWs)   bands (ev):

   -11.6439 -11.6049 -11.6023 -11.5564 -11.5545 -11.5524 -11.5491 -11.5475
   -11.4872 -11.4787 -11.4565 -11.4447 -11.3760 -11.3211 -11.1336 -11.0178
   -10.9341 -10.9284 -10.8185 -10.8162 -10.8155 -10.7766 -10.7145 -10.7004
   -10.6967 -10.6949 -10.6928 -10.6916 -10.6897 -10.6886 -10.6826 -10.6816
   -10.6619 -10.6510 -10.6504 -10.6452 -10.6410 -10.6345 -10.6202 -10.6031
   -10.5317 -10.5312 -10.5294 -10.5286 -10.5285 -10.5280 -10.5271 -10.5263
   -10.5227 -10.5094 -10.4908 -10.4867 -10.4774 -10.4768 -10.4711 -10.4672
   -10.4639 -10.4637 -10.4621 -10.4620 -10.4619 -10.4614 -10.4609 -10.4515
   -10.4265 -10.4225 -10.4222 -10.4194 -10.4192 -10.4192 -10.4189 -10.4188
   -10.4169 -10.4164 -10.4159 -10.4147 -10.4140 -10.4128 -10.4112 -10.4090
    -9.3609  -9.1619  -8.7320  -8.4662  -8.3636  -8.1455  -8.1360  -8.1081
    -8.0757  -8.0119  -7.8554  -7.8443  -7.8186  -7.8099  -7.6908  -7.6490
    -7.4259  -7.2940  -7.1226  -6.9568  -6.8930  -6.5814  -6.1698  -6.1274
    -6.1211  -6.0699  -6.0602  -6.0450  -6.0297  -5.9751  -5.9604  -5.9552
     1.4568   1.5024   1.6648   1.8203   1.8670   1.8847   2.0178   2.0591
     2.4409   2.4774   2.6921   3.1007   3.3761   3.6702   3.9547   3.9785
     4.2177   4.3993   4.4011   4.4324   4.4403   4.4721   4.6873   4.8364
     4.9696   5.0474   5.0631   5.3105   5.3187   5.3585   5.4056   5.4824
     5.5721   5.5777   5.6321   5.7313   5.9231   5.9638   6.0400   6.0904
     6.2349   6.2789   6.4817   6.5327   6.5417   6.7191   6.8079   6.8957
     7.0829   7.2106   7.2286   7.4084   7.4513   7.4536   7.5035   7.5272
     7.5950   7.6526   7.6982   7.6998   7.7278   7.7596   7.9209   7.9656
     7.9945   8.0128   8.0528   8.0617   8.0653   8.0853   8.0866   8.1139
     8.1354   8.1365   8.1458   8.1481   8.2441   8.2462   8.2544   8.2689
     8.2806   8.3225   8.3639   8.4055   8.4577   8.4789   8.4911   8.5382
     8.5486   8.6232   8.6390   8.6477   8.6695   8.7310   8.9702   9.1912
    11.4644  12.3614  13.4480  13.7058  14.1140  14.1406  14.4520  14.5561
    14.6878  14.9353  15.0663  15.1306  15.1973  15.2915  15.7248  15.7441
    15.7956  15.9138  16.0366  16.1950  16.4300  16.4844  16.6103  16.6454
    17.4345  17.5276  17.8186  17.9252  18.0478  18.1136  18.2620  18.7364
    19.6502  19.8174  19.9244  19.9307  19.9448  19.9457  19.9514  20.0024
    20.0378  20.1551  20.1649  20.1716  20.2099  20.2473  20.3684  20.3801

          k = 0.1250 0.3750 0.3715 ( 30550 PWs)   bands (ev):

   -11.5830 -11.5383 -11.5367 -11.5036 -11.4848 -11.4844 -11.4825 -11.4767
   -11.4118 -11.4023 -11.3971 -11.3951 -11.3211 -11.2798 -11.1074 -11.0426
   -10.9779 -10.9769 -10.9036 -10.8640 -10.8559 -10.8100 -10.8084 -10.8078
   -10.8065 -10.8063 -10.8059 -10.8026 -10.8015 -10.7471 -10.7130 -10.6715
   -10.6441 -10.6319 -10.6292 -10.6230 -10.6169 -10.6064 -10.5867 -10.5813
   -10.5278 -10.5261 -10.5212 -10.5209 -10.5206 -10.5178 -10.5166 -10.5162
   -10.5134 -10.5056 -10.4884 -10.4844 -10.4827 -10.4770 -10.4756 -10.4754
   -10.4702 -10.4694 -10.4676 -10.4644 -10.4643 -10.4619 -10.4611 -10.4605
   -10.4587 -10.4570 -10.4561 -10.4559 -10.4522 -10.4518 -10.4503 -10.4495
   -10.4357 -10.4357 -10.4352 -10.4345 -10.4340 -10.4337 -10.4322 -10.4318
    -9.2825  -9.0705  -8.6187  -8.5312  -8.4376  -8.3506  -8.2348  -8.1295
    -7.9891  -7.9566  -7.9252  -7.8515  -7.6885  -7.6376  -7.6259  -7.3053
    -7.2379  -7.1733  -6.9714  -6.8464  -6.8044  -6.5131  -6.3364  -6.2879
    -6.1955  -6.1865  -6.1801  -6.1274  -6.1209  -6.0666  -6.0249  -6.0090
     1.4511   1.6136   1.7401   1.8712   1.8980   1.9141   1.9871   2.2762
     2.6521   2.9264   2.9526   3.0889   3.2849   3.3951   3.9706   4.0120
     4.3224   4.4138   4.5552   4.5974   4.6525   4.7180   4.7435   4.9992
     5.1164   5.1519   5.1587   5.2419   5.2619   5.3104   5.3304   5.3972
     5.4527   5.4543   5.4617   5.5239   5.6657   5.6876   5.9231   5.9311
     6.0183   6.3387   6.3994   6.5151   6.5665   6.6849   6.8192   6.8604
     6.8876   6.8907   7.1104   7.2300   7.2770   7.3309   7.3829   7.3908
     7.4496   7.4661   7.5109   7.6107   7.6285   7.6849   7.7537   7.7859
     7.8274   7.9112   7.9206   7.9428   7.9655   8.0224   8.0518   8.1094
     8.1530   8.2298   8.2323   8.2467   8.2636   8.2978   8.2997   8.3439
     8.4010   8.4331   8.4515   8.4673   8.5140   8.5759   8.5866   8.5915
     8.6018   8.6391   8.6441   8.6486   8.7145   8.7705   8.9621   9.1427
    12.0303  12.7757  13.7287  13.9155  14.3384  14.3767  14.4540  14.5801
    14.6304  14.8097  14.8178  15.0052  15.1214  15.3980  15.8624  16.0059
    16.3328  16.4285  16.5527  16.6864  16.9048  16.9505  17.0446  17.0671
    17.6110  17.7162  17.8631  17.9519  18.1469  18.2092  18.3278  18.6910
    18.9414  19.1413  19.2179  19.2800  19.4100  19.4826  19.5232  19.5477
    19.7533  19.8452  19.8509  19.8944  19.9490  20.0069  20.2811  20.5438

          k = 0.1250 0.3750 0.6191 ( 30553 PWs)   bands (ev):

   -11.4833 -11.4495 -11.4370 -11.4242 -11.4218 -11.3722 -11.3662 -11.3535
   -11.3452 -11.3230 -11.2898 -11.2734 -11.2644 -11.2582 -11.1875 -11.1031
   -11.0901 -11.0489 -10.9878 -10.9874 -10.9834 -10.9476 -10.9364 -10.9344
   -10.9313 -10.9230 -10.8724 -10.8178 -10.7867 -10.7555 -10.6944 -10.6845
   -10.6018 -10.5947 -10.5903 -10.5887 -10.5818 -10.5775 -10.5775 -10.5708
   -10.5497 -10.5482 -10.5449 -10.5410 -10.5385 -10.5385 -10.5377 -10.5311
   -10.5092 -10.5005 -10.4994 -10.4945 -10.4903 -10.4880 -10.4854 -10.4830
   -10.4828 -10.4813 -10.4811 -10.4790 -10.4787 -10.4748 -10.4736 -10.4714
   -10.4700 -10.4671 -10.4650 -10.4649 -10.4614 -10.4602 -10.4586 -10.4574
   -10.4569 -10.4563 -10.4557 -10.4546 -10.4534 -10.4516 -10.4487 -10.4483
    -9.1274  -8.9152  -8.8806  -8.7053  -8.4531  -8.2837  -8.1918  -8.0594
    -8.0450  -7.9186  -7.8173  -7.7728  -7.7256  -7.6233  -7.3621  -7.1940
    -6.9304  -6.9261  -6.7140  -6.6456  -6.6310  -6.6189  -6.5802  -6.4238
    -6.4056  -6.4028  -6.3839  -6.2195  -6.1743  -6.1214  -6.1038  -6.0914
     1.4487   1.4831   1.8632   1.8689   2.1532   2.2621   2.3641   2.5179
     2.6137   2.6485   2.9081   3.0353   3.4996   3.8851   3.8940   4.1971
     4.4559   4.4662   4.4826   4.6263   4.6479   4.7817   4.8156   4.8824
     4.9294   4.9518   5.0475   5.1667   5.2387   5.2414   5.2875   5.4135
     5.4486   5.6091   5.7528   5.8087   5.8127   5.8700   5.9539   6.0104
     6.0280   6.1216   6.1995   6.2283   6.3167   6.3229   6.4009   6.5944
     6.6006   6.7299   6.9219   6.9580   7.1394   7.1840   7.1943   7.2373
     7.2984   7.4211   7.4753   7.5273   7.5465   7.5553   7.5624   7.7327
     7.7367   7.7931   7.8112   7.8706   7.9336   8.0879   8.0965   8.0979
     8.1512   8.1535   8.2799   8.2983   8.3359   8.3876   8.4400   8.4880
     8.5005   8.5102   8.5216   8.5457   8.5650   8.5827   8.5960   8.5972
     8.6705   8.7013   8.7496   8.7509   8.7546   8.7575   8.8920   8.9985
    12.8871  13.4377  13.7860  14.1545  14.1608  14.1980  14.3933  14.5537
    14.5738  14.6753  14.7417  15.0156  15.4468  15.7758  15.8198  16.0605
    17.2019  17.2682  17.4029  17.4378  17.6525  17.6761  17.7087  17.7190
    17.9240  17.9426  18.0225  18.0980  18.1155  18.1388  18.1797  18.2326
    18.2339  18.3487  18.3755  18.5217  18.7532  18.7849  18.9919  19.0203
    19.2802  19.3857  19.5472  19.6577  19.6984  19.9151  20.2014  20.5673

          k = 0.3750 0.3750 0.1238 ( 30551 PWs)   bands (ev):

   -11.6224 -11.6224 -11.6108 -11.6055 -11.6015 -11.5437 -11.5437 -11.5124
   -11.4831 -11.4831 -11.4494 -11.4440 -11.2803 -11.1898 -11.1898 -11.0791
   -10.9807 -10.9787 -10.9255 -10.9255 -10.7123 -10.7013 -10.7013 -10.7004
   -10.6962 -10.6930 -10.6821 -10.6821 -10.6778 -10.6769 -10.6661 -10.6661
   -10.6631 -10.6568 -10.6555 -10.6555 -10.6313 -10.6238 -10.6238 -10.6128
   -10.5325 -10.5325 -10.5318 -10.5310 -10.5285 -10.5280 -10.5279 -10.5276
   -10.5164 -10.5048 -10.5048 -10.4965 -10.4697 -10.4695 -10.4667 -10.4667
   -10.4658 -10.4646 -10.4646 -10.4611 -10.4611 -10.4606 -10.4606 -10.4560
   -10.4237 -10.4237 -10.4236 -10.4225 -10.4221 -10.4181 -10.4181 -10.4175
   -10.4161 -10.4161 -10.4154 -10.4149 -10.4121 -10.4106 -10.4097 -10.4097
    -9.2516  -9.0372  -9.0372  -8.7980  -8.1364  -8.1153  -8.1153  -8.0111
    -7.9762  -7.9762  -7.7115  -7.7115  -7.6836  -7.6655  -7.6438  -7.6389
    -7.6357  -7.6339  -7.3295  -7.3295  -6.5311  -6.2642  -6.2642  -6.2049
    -6.1730  -6.1459  -6.1459  -6.0517  -5.9765  -5.9573  -5.9355  -5.9355
     1.5265   1.6778   1.7229   1.7229   1.7659   1.9898   2.1034   2.1034
     2.3672   2.3673   2.5283   2.5391   4.0420   4.0455   4.0455   4.0558
     4.0558   4.0818   4.5381   4.5463   4.5495   4.6032   4.6065   4.6065
     4.7737   4.7738   4.7921   4.8367   5.3159   5.3815   5.4440   5.4440
     5.6548   5.9069   5.9069   5.9167   5.9167   6.0044   6.2049   6.2472
     6.4520   6.4520   6.6133   6.6620   6.7111   6.7408   6.7442   6.8718
     6.8726   6.8726   7.0175   7.2020   7.2020   7.2191   7.2191   7.6249
     7.6694   7.7088   7.7088   7.7281   7.8353   7.9724   7.9724   7.9813
     8.0220   8.0233   8.0363   8.0363   8.0848   8.0848   8.1351   8.1545
     8.1722   8.1722   8.1747   8.1762   8.1765   8.2083   8.2211   8.2211
     8.2788   8.3352   8.3352   8.3574   8.3631   8.4485   8.4915   8.4915
     8.5490   8.6038   8.6038   8.6083   8.7588   8.8963   8.8963   9.0816
    11.9551  12.6836  12.6836  13.1826  14.4273  14.5920  14.5920  14.6033
    14.8847  14.9290  14.9290  14.9403  15.0506  15.4758  15.4758  15.7274
    16.0026  16.0727  16.2240  16.2240  16.3300  16.3300  16.4457  16.5270
    17.2474  17.2474  17.3664  17.4698  18.7191  18.7191  18.7252  19.3023
    19.4715  19.6883  19.6988  19.7426  19.7426  19.7601  19.7804  19.7804
    20.1326  20.1831  20.1831  20.2112  20.2186  20.5105  20.5558  20.5840

          k = 0.3750 0.3750 0.3715 ( 30547 PWs)   bands (ev):

   -11.5556 -11.5555 -11.5512 -11.5374 -11.5362 -11.4878 -11.4878 -11.4531
   -11.4077 -11.4076 -11.3669 -11.3620 -11.2345 -11.1555 -11.1555 -11.0616
   -11.0447 -11.0411 -10.9888 -10.9888 -10.8097 -10.8084 -10.8083 -10.8077
   -10.8058 -10.8034 -10.8034 -10.8016 -10.7411 -10.6758 -10.6758 -10.6727
   -10.6435 -10.6362 -10.6362 -10.6361 -10.6022 -10.5908 -10.5908 -10.5817
   -10.5277 -10.5277 -10.5252 -10.5241 -10.5170 -10.5170 -10.5157 -10.5154
   -10.5121 -10.5014 -10.5014 -10.4936 -10.4781 -10.4740 -10.4740 -10.4704
   -10.4687 -10.4686 -10.4648 -10.4640 -10.4640 -10.4635 -10.4634 -10.4602
   -10.4586 -10.4586 -10.4563 -10.4559 -10.4535 -10.4513 -10.4513 -10.4510
   -10.4365 -10.4363 -10.4363 -10.4352 -10.4327 -10.4327 -10.4327 -10.4325
    -9.1664  -8.9393  -8.9393  -8.6907  -8.4798  -8.3491  -8.3491  -8.1685
    -7.8323  -7.8323  -7.6170  -7.5752  -7.5752  -7.5577  -7.5125  -7.4633
    -7.4179  -7.3795  -7.1813  -7.1813  -6.4759  -6.3927  -6.3586  -6.3114
    -6.3113  -6.2415  -6.2415  -6.0738  -6.0670  -6.0287  -6.0064  -6.0064
     1.6684   1.6706   1.7080   1.7880   1.7880   2.0873   2.0873   2.2308
     2.4761   2.6384   2.6384   2.9627   3.6957   3.8668   3.8668   4.1059
     4.1135   4.1135   4.2998   4.5974   4.8505   4.8562   4.8933   4.8933
     5.0573   5.0573   5.1305   5.1381   5.2782   5.2782   5.4552   5.5171
     5.5550   5.6432   5.6432   5.7682   5.8753   5.8753   5.8814   6.0898
     6.1720   6.1720   6.2662   6.4399   6.4958   6.5664   6.6560   6.7011
     6.7293   6.7293   6.9703   7.0966   7.0966   7.1717   7.1717   7.3484
     7.5770   7.6039   7.6046   7.7356   7.7356   7.7961   7.7961   7.8002
     7.8510   7.8790   7.8790   7.9651   8.0222   8.0222   8.0328   8.1149
     8.1149   8.1680   8.1701   8.2419   8.3158   8.3166   8.3166   8.3698
     8.3861   8.4637   8.4801   8.4801   8.4816   8.5643   8.5754   8.5754
     8.5959   8.6084   8.6084   8.6265   8.8552   8.9431   8.9431   9.0829
    12.4088  13.0285  13.0285  13.4466  14.4823  14.5876  14.6472  14.6472
    14.6590  14.8774  14.8774  15.0150  15.2082  15.5135  15.5135  15.8538
    16.4955  16.5834  16.7121  16.7121  16.8050  16.8051  16.9096  16.9665
    17.4820  17.4820  17.5369  17.6506  18.6552  18.6552  18.6792  18.9764
    18.9996  19.0525  19.1428  19.1428  19.2093  19.2370  19.2370  19.2927
    19.9891  19.9892  20.0618  20.1777  20.2657  20.3844  20.3844  20.3860

          k = 0.3750 0.3750 0.6191 ( 30583 PWs)   bands (ev):

   -11.4611 -11.4505 -11.4505 -11.4457 -11.4268 -11.4173 -11.4173 -11.3784
   -11.2827 -11.2827 -11.2130 -11.2083 -11.2038 -11.1854 -11.1854 -11.1522
   -11.1406 -11.1119 -11.0605 -11.0605 -11.0119 -11.0084 -10.9857 -10.9857
   -10.8667 -10.8141 -10.8141 -10.8076 -10.7731 -10.7271 -10.7271 -10.6839
   -10.6026 -10.5978 -10.5978 -10.5962 -10.5728 -10.5680 -10.5680 -10.5674
   -10.5524 -10.5507 -10.5507 -10.5457 -10.5313 -10.5313 -10.5313 -10.5270
   -10.5046 -10.5003 -10.4961 -10.4961 -10.4959 -10.4958 -10.4958 -10.4894
   -10.4814 -10.4783 -10.4783 -10.4768 -10.4763 -10.4748 -10.4729 -10.4729
   -10.4688 -10.4666 -10.4666 -10.4628 -10.4606 -10.4584 -10.4570 -10.4570
   -10.4570 -10.4570 -10.4563 -10.4549 -10.4536 -10.4519 -10.4519 -10.4506
    -9.0119  -8.7854  -8.7816  -8.7816  -8.5838  -8.5838  -8.5300  -8.3523
    -7.6495  -7.6495  -7.5528  -7.5439  -7.5439  -7.5223  -7.3454  -7.2654
    -7.1076  -7.0659  -6.9140  -6.9140  -6.7197  -6.6819  -6.5943  -6.5942
    -6.3652  -6.2144  -6.1910  -6.1910  -6.1071  -6.1071  -6.1037  -6.0985
     1.6355   1.6517   1.9112   1.9112   2.0068   2.0279   2.0279   2.3006
     2.6640   3.0677   3.0677   3.1878   3.5077   3.5077   3.5260   3.9567
     4.3324   4.3467   4.3467   4.6807   4.8717   4.8717   4.9782   4.9876
     5.2293   5.2293   5.2732   5.2732   5.3881   5.4001   5.5778   5.5778
     5.6308   5.6650   5.7159   5.7465   5.8625   5.9434   5.9434   5.9571
     6.0713   6.1215   6.1444   6.1444   6.1508   6.2552   6.3603   6.3603
     6.3650   6.6211   6.6341   6.7526   6.7945   6.7945   6.9136   6.9136
     7.3214   7.3783   7.6053   7.6053   7.6627   7.6627   7.7438   7.8230
     7.8271   7.9077   7.9213   7.9843   7.9843   8.0311   8.0311   8.1360
     8.2101   8.2101   8.2338   8.2445   8.3724   8.3724   8.4059   8.4655
     8.4968   8.4968   8.4982   8.5180   8.5517   8.5641   8.5641   8.5872
     8.7697   8.7697   8.7731   8.7745   8.8710   8.9066   8.9066   8.9847
    13.1302  13.5810  13.5810  13.8491  13.9075  14.1662  14.1662  14.2275
    14.9361  15.0584  15.2492  15.2492  15.4788  15.4788  15.6194  15.8572
    17.3009  17.4102  17.5141  17.5141  17.5517  17.5517  17.6545  17.6619
    17.8276  17.8752  17.8752  17.9689  18.2452  18.2832  18.2832  18.3071
    18.3321  18.3511  18.4269  18.4269  18.4531  18.4531  18.5758  18.5894
    19.9003  19.9003  20.0426  20.0945  20.0945  20.2359  20.3457  20.4107

          k =-0.1250 0.1250-0.1238 ( 30546 PWs)   bands (ev):

   -11.6889 -11.6227 -11.6227 -11.6033 -11.6033 -11.4888 -11.4772 -11.4529
   -11.4525 -11.4401 -11.4322 -11.4322 -11.4247 -11.2834 -11.2834 -11.0060
   -10.9831 -10.9619 -10.9295 -10.8657 -10.7187 -10.7186 -10.7017 -10.7017
   -10.6980 -10.6980 -10.6838 -10.6816 -10.6786 -10.6761 -10.6732 -10.6732
   -10.6707 -10.6517 -10.6478 -10.6405 -10.6405 -10.6308 -10.6308 -10.5818
   -10.5296 -10.5296 -10.5296 -10.5266 -10.5260 -10.5260 -10.5260 -10.5244
   -10.5236 -10.4934 -10.4933 -10.4826 -10.4793 -10.4769 -10.4769 -10.4738
   -10.4636 -10.4635 -10.4633 -10.4630 -10.4626 -10.4613 -10.4612 -10.4461
   -10.4314 -10.4237 -10.4237 -10.4223 -10.4223 -10.4189 -10.4178 -10.4166
   -10.4160 -10.4160 -10.4156 -10.4147 -10.4125 -10.4125 -10.4085 -10.4085
    -9.4608  -8.8740  -8.8740  -8.5214  -8.5214  -8.1085  -8.1022  -8.1022
    -8.0708  -7.9878  -7.9878  -7.7177  -7.6821  -7.6752  -7.6075  -7.6025
    -7.6020  -7.5419  -7.2864  -6.7608  -6.7608  -6.4088  -6.4088  -6.2272
    -6.1793  -6.1503  -6.1097  -5.9707  -5.9707  -5.9374  -5.9374  -5.8870
     1.2497   1.3589   1.4151   1.8210   2.2130   2.2131   2.4003   2.4064
     2.4064   2.4561   2.4561   3.1754   3.1754   3.5515   3.8049   3.8063
     3.8064   3.9971   3.9971   4.3683   4.3688   5.0033   5.0837   5.0938
     5.0938   5.1573   5.1975   5.2015   5.2015   5.3018   5.4229   5.4494
     5.6302   5.7214   5.7695   5.7695   6.0670   6.1411   6.1411   6.2973
     6.3057   6.3745   6.3745   6.3990   6.7054   6.7770   6.8584   6.8584
     6.8861   7.0731   7.1086   7.2101   7.2101   7.2762   7.3584   7.4867
     7.5472   7.5621   7.5648   7.5648   7.6306   7.6306   7.7062   7.7062
     7.9597   8.0436   8.0676   8.0886   8.1237   8.1255   8.1255   8.1376
     8.1543   8.1543   8.1619   8.2396   8.2396   8.3275   8.3275   8.3899
     8.3970   8.4775   8.4913   8.5217   8.5323   8.5378   8.5378   8.5495
     8.6411   8.6487   8.6487   8.7078   8.7078   8.7924   8.7924   9.3320
    10.8053  13.2783  13.2783  13.9496  14.0849  14.0850  14.1013  14.1891
    14.2185  15.1565  15.2836  15.4563  15.4563  15.6508  15.6508  15.6733
    15.6754  15.6906  16.2933  16.2933  16.3684  16.3684  16.7329  16.7458
    17.2812  17.2812  17.5596  17.5596  18.0190  18.1859  18.4608  19.1286
    19.3976  19.7529  19.8756  20.0204  20.0204  20.0713  20.0945  20.0945
    20.0995  20.1200  20.1755  20.1755  20.1878  20.1878  20.2112  20.2411

          k =-0.1250 0.1250-0.3715 ( 30556 PWs)   bands (ev):

   -11.6237 -11.5557 -11.5557 -11.5335 -11.5335 -11.4134 -11.4071 -11.3905
   -11.3905 -11.3872 -11.3706 -11.3609 -11.3583 -11.2531 -11.2531 -11.1465
   -11.0373 -10.9761 -10.8928 -10.8113 -10.8107 -10.8060 -10.8059 -10.8059
   -10.8046 -10.8046 -10.8034 -10.7757 -10.7757 -10.7693 -10.6912 -10.6912
   -10.6503 -10.6305 -10.6260 -10.6161 -10.6161 -10.5997 -10.5997 -10.5834
   -10.5288 -10.5288 -10.5243 -10.5228 -10.5228 -10.5148 -10.5129 -10.5127
   -10.5110 -10.4907 -10.4906 -10.4866 -10.4803 -10.4787 -10.4770 -10.4755
   -10.4755 -10.4708 -10.4708 -10.4660 -10.4647 -10.4647 -10.4647 -10.4644
   -10.4620 -10.4548 -10.4526 -10.4526 -10.4511 -10.4497 -10.4497 -10.4465
   -10.4358 -10.4358 -10.4343 -10.4342 -10.4342 -10.4336 -10.4333 -10.4331
    -9.3881  -8.7639  -8.7639  -8.5613  -8.3896  -8.3896  -8.2498  -8.2497
    -7.9965  -7.9711  -7.9710  -7.7133  -7.6689  -7.6110  -7.4954  -7.4010
    -7.3859  -7.1748  -7.0652  -6.6549  -6.6549  -6.4168  -6.3540  -6.3540
    -6.3465  -6.3343  -6.2575  -6.0715  -6.0715  -6.0098  -6.0098  -5.9795
     1.2361   1.4617   1.6332   1.6908   2.2693   2.2693   2.4680   2.4680
     2.6447   2.6447   3.1663   3.1926   3.1926   3.2486   3.4098   3.8882
     3.8882   4.0872   4.0872   4.6741   4.6762   4.9103   5.0487   5.1086
     5.1086   5.3386   5.3386   5.3585   5.3585   5.3799   5.4155   5.4155
     5.4330   5.4832   5.5213   5.5312   5.5723   5.9049   5.9482   6.2390
     6.3843   6.3880   6.4586   6.5556   6.5655   6.6850   6.6850   6.7346
     6.8393   6.9061   6.9349   7.0076   7.0076   7.1994   7.2570   7.2570
     7.3426   7.4180   7.5459   7.6045   7.6595   7.6595   7.6700   7.6700
     7.7478   7.7478   7.9257   7.9257   8.0318   8.0318   8.1565   8.1565
     8.2223   8.3035   8.3102   8.3363   8.3633   8.3698   8.3698   8.3966
     8.4453   8.4453   8.4472   8.5022   8.5382   8.5871   8.5929   8.5937
     8.6374   8.6374   8.6578   8.6578   8.6579   8.7649   8.7649   9.2333
    11.5656  13.6143  13.6143  14.1102  14.2571  14.2659  14.3228  14.3953
    14.3953  14.4731  15.1631  15.1631  15.5620  15.5620  15.5995  16.0518
    16.2221  16.2433  16.7961  16.7961  16.8617  16.8617  17.1312  17.1379
    17.5531  17.5531  17.7724  17.7724  18.0962  18.1296  18.2713  18.7229
    18.9812  19.0766  19.4374  19.4374  19.4857  19.4857  19.7246  19.7246
    19.7575  19.7577  19.7577  19.8364  19.9732  19.9846  20.1244  20.2719

          k =-0.1250 0.1250-0.6191 ( 30540 PWs)   bands (ev):

   -11.5068 -11.4464 -11.4464 -11.4103 -11.4103 -11.3780 -11.3697 -11.3697
   -11.2920 -11.2850 -11.2846 -11.2846 -11.2575 -11.2162 -11.2049 -11.1902
   -11.1384 -11.0467 -11.0217 -11.0143 -11.0055 -10.9889 -10.8945 -10.8945
   -10.8616 -10.8616 -10.8367 -10.8367 -10.7583 -10.7583 -10.7471 -10.7091
   -10.6048 -10.5922 -10.5893 -10.5863 -10.5855 -10.5855 -10.5759 -10.5759
   -10.5483 -10.5483 -10.5452 -10.5449 -10.5449 -10.5376 -10.5322 -10.5289
   -10.5145 -10.5023 -10.4902 -10.4876 -10.4876 -10.4864 -10.4864 -10.4864
   -10.4858 -10.4846 -10.4798 -10.4798 -10.4765 -10.4752 -10.4752 -10.4736
   -10.4702 -10.4682 -10.4639 -10.4639 -10.4604 -10.4595 -10.4594 -10.4584
   -10.4582 -10.4582 -10.4537 -10.4537 -10.4505 -10.4505 -10.4497 -10.4468
    -9.2286  -8.9568  -8.5983  -8.5983  -8.4209  -8.4209  -8.2041  -8.2041
    -8.0478  -8.0478  -7.8689  -7.7767  -7.6473  -7.6255  -7.1370  -7.0861
    -7.0364  -6.9391  -6.8422  -6.7464  -6.6551  -6.6296  -6.4689  -6.4689
    -6.3600  -6.2538  -6.2538  -6.2530  -6.2530  -6.1630  -6.1272  -6.1272
     1.2307   1.2833   2.1224   2.1890   2.3821   2.3821   2.4579   2.4579
     2.7153   2.8089   2.9656   2.9656   3.1619   3.1619   4.0983   4.1094
     4.1094   4.2399   4.2399   4.5338   4.5338   4.6422   4.6422   4.8617
     4.8953   5.1717   5.2139   5.2148   5.5437   5.6673   5.6993   5.7264
     5.7814   5.7981   5.8154   5.8155   5.8738   5.8738   5.9011   5.9793
     6.0709   6.1378   6.2310   6.2437   6.3750   6.3750   6.4755   6.4897
     6.4897   6.6204   6.7471   6.7769   6.9050   6.9246   6.9697   6.9922
     7.2159   7.2198   7.5035   7.5035   7.6924   7.6924   7.7507   7.7507
     7.8045   7.8045   7.8963   7.8963   8.0205   8.0205   8.0927   8.0927
     8.3019   8.3019   8.3050   8.3614   8.4502   8.4502   8.4609   8.4770
     8.4826   8.4886   8.5158   8.5295   8.5564   8.5564   8.5817   8.6046
     8.6407   8.6407   8.6528   8.6566   8.7024   8.7024   8.7295   9.0284
    12.5945  13.6063  14.1444  14.1444  14.2877  14.3376  14.4160  14.4315
    14.7012  14.7012  14.8606  14.8606  15.2914  15.2914  15.9836  16.1715
    17.1248  17.1596  17.6062  17.6062  17.6189  17.6189  17.7309  17.7327
    17.9679  17.9679  17.9835  18.0478  18.0478  18.1302  18.1470  18.1701
    18.1994  18.2136  18.6623  18.6623  18.7397  18.7398  19.1312  19.1312
    19.2199  19.2199  19.4005  19.4695  19.7795  19.9036  20.1781  20.3272

          k =-0.1250 0.3750-0.1238 ( 30522 PWs)   bands (ev):

   -11.6439 -11.6049 -11.6023 -11.5564 -11.5545 -11.5524 -11.5491 -11.5474
   -11.4872 -11.4787 -11.4565 -11.4447 -11.3760 -11.3211 -11.1336 -11.0178
   -10.9341 -10.9284 -10.8185 -10.8162 -10.8155 -10.7766 -10.7145 -10.7004
   -10.6967 -10.6949 -10.6928 -10.6916 -10.6897 -10.6886 -10.6826 -10.6816
   -10.6619 -10.6510 -10.6504 -10.6452 -10.6409 -10.6345 -10.6202 -10.6031
   -10.5317 -10.5312 -10.5294 -10.5286 -10.5286 -10.5280 -10.5271 -10.5262
   -10.5227 -10.5094 -10.4908 -10.4867 -10.4774 -10.4768 -10.4711 -10.4672
   -10.4638 -10.4637 -10.4621 -10.4620 -10.4619 -10.4614 -10.4609 -10.4515
   -10.4266 -10.4224 -10.4221 -10.4194 -10.4192 -10.4191 -10.4190 -10.4189
   -10.4169 -10.4164 -10.4159 -10.4147 -10.4139 -10.4128 -10.4112 -10.4090
    -9.3609  -9.1619  -8.7320  -8.4662  -8.3636  -8.1455  -8.1360  -8.1081
    -8.0757  -8.0119  -7.8553  -7.8443  -7.8185  -7.8099  -7.6909  -7.6490
    -7.4259  -7.2940  -7.1226  -6.9568  -6.8930  -6.5814  -6.1698  -6.1274
    -6.1212  -6.0699  -6.0602  -6.0450  -6.0297  -5.9751  -5.9604  -5.9552
     1.4568   1.5024   1.6648   1.8203   1.8670   1.8847   2.0178   2.0591
     2.4409   2.4774   2.6921   3.1007   3.3761   3.6702   3.9547   3.9785
     4.2177   4.3993   4.4011   4.4324   4.4404   4.4721   4.6873   4.8364
     4.9696   5.0474   5.0631   5.3105   5.3187   5.3585   5.4056   5.4824
     5.5721   5.5777   5.6321   5.7313   5.9231   5.9638   6.0400   6.0904
     6.2349   6.2789   6.4817   6.5327   6.5417   6.7191   6.8079   6.8957
     7.0829   7.2106   7.2286   7.4084   7.4513   7.4536   7.5035   7.5272
     7.5950   7.6526   7.6982   7.6998   7.7278   7.7596   7.9209   7.9656
     7.9945   8.0128   8.0528   8.0617   8.0653   8.0853   8.0866   8.1139
     8.1355   8.1365   8.1457   8.1480   8.2441   8.2462   8.2544   8.2689
     8.2806   8.3225   8.3639   8.4055   8.4577   8.4789   8.4911   8.5382
     8.5486   8.6232   8.6390   8.6477   8.6695   8.7310   8.9702   9.1912
    11.4644  12.3614  13.4479  13.7058  14.1140  14.1406  14.4520  14.5561
    14.6878  14.9353  15.0663  15.1306  15.1974  15.2915  15.7248  15.7441
    15.7956  15.9138  16.0366  16.1950  16.4300  16.4844  16.6103  16.6454
    17.4345  17.5276  17.8186  17.9252  18.0478  18.1136  18.2620  18.7364
    19.6502  19.8174  19.9244  19.9307  19.9448  19.9456  19.9514  20.0024
    20.0378  20.1551  20.1649  20.1716  20.2099  20.2473  20.3684  20.3801

          k =-0.1250 0.3750-0.3715 ( 30550 PWs)   bands (ev):

   -11.5830 -11.5383 -11.5367 -11.5036 -11.4848 -11.4844 -11.4824 -11.4766
   -11.4118 -11.4023 -11.3971 -11.3951 -11.3211 -11.2798 -11.1074 -11.0426
   -10.9779 -10.9769 -10.9036 -10.8640 -10.8560 -10.8101 -10.8084 -10.8078
   -10.8065 -10.8064 -10.8059 -10.8026 -10.8015 -10.7470 -10.7130 -10.6715
   -10.6441 -10.6319 -10.6292 -10.6230 -10.6169 -10.6064 -10.5867 -10.5813
   -10.5278 -10.5261 -10.5212 -10.5209 -10.5206 -10.5178 -10.5166 -10.5162
   -10.5134 -10.5056 -10.4884 -10.4844 -10.4827 -10.4770 -10.4756 -10.4754
   -10.4702 -10.4694 -10.4676 -10.4644 -10.4643 -10.4619 -10.4611 -10.4605
   -10.4587 -10.4570 -10.4561 -10.4559 -10.4522 -10.4518 -10.4503 -10.4495
   -10.4357 -10.4357 -10.4353 -10.4345 -10.4340 -10.4336 -10.4322 -10.4318
    -9.2825  -9.0705  -8.6187  -8.5312  -8.4376  -8.3506  -8.2348  -8.1296
    -7.9891  -7.9566  -7.9252  -7.8515  -7.6885  -7.6376  -7.6259  -7.3053
    -7.2379  -7.1733  -6.9714  -6.8464  -6.8044  -6.5131  -6.3364  -6.2879
    -6.1955  -6.1865  -6.1800  -6.1275  -6.1208  -6.0666  -6.0249  -6.0090
     1.4511   1.6136   1.7401   1.8712   1.8980   1.9141   1.9871   2.2762
     2.6521   2.9264   2.9526   3.0889   3.2849   3.3951   3.9706   4.0120
     4.3223   4.4139   4.5552   4.5974   4.6525   4.7179   4.7435   4.9992
     5.1164   5.1519   5.1588   5.2419   5.2619   5.3104   5.3304   5.3972
     5.4527   5.4543   5.4617   5.5239   5.6657   5.6876   5.9231   5.9311
     6.0183   6.3387   6.3994   6.5151   6.5665   6.6849   6.8192   6.8604
     6.8876   6.8907   7.1104   7.2300   7.2770   7.3308   7.3829   7.3908
     7.4496   7.4661   7.5109   7.6107   7.6285   7.6849   7.7537   7.7859
     7.8274   7.9112   7.9206   7.9428   7.9655   8.0223   8.0518   8.1094
     8.1530   8.2298   8.2322   8.2467   8.2636   8.2978   8.2997   8.3439
     8.4010   8.4331   8.4515   8.4673   8.5140   8.5759   8.5866   8.5915
     8.6018   8.6391   8.6441   8.6486   8.7145   8.7705   8.9621   9.1427
    12.0303  12.7757  13.7287  13.9155  14.3384  14.3767  14.4540  14.5801
    14.6304  14.8097  14.8178  15.0052  15.1215  15.3980  15.8624  16.0059
    16.3328  16.4285  16.5527  16.6864  16.9048  16.9505  17.0446  17.0671
    17.6110  17.7162  17.8631  17.9519  18.1469  18.2092  18.3278  18.6910
    18.9414  19.1413  19.2179  19.2800  19.4100  19.4826  19.5232  19.5477
    19.7533  19.8452  19.8509  19.8944  19.9490  20.0069  20.2811  20.5438

          k =-0.1250 0.3750-0.6191 ( 30553 PWs)   bands (ev):

   -11.4833 -11.4495 -11.4370 -11.4242 -11.4218 -11.3722 -11.3662 -11.3535
   -11.3452 -11.3230 -11.2898 -11.2734 -11.2644 -11.2582 -11.1875 -11.1031
   -11.0901 -11.0489 -10.9879 -10.9874 -10.9834 -10.9476 -10.9364 -10.9344
   -10.9313 -10.9230 -10.8725 -10.8178 -10.7868 -10.7555 -10.6944 -10.6845
   -10.6018 -10.5947 -10.5903 -10.5887 -10.5818 -10.5775 -10.5774 -10.5708
   -10.5497 -10.5482 -10.5450 -10.5410 -10.5385 -10.5384 -10.5377 -10.5311
   -10.5092 -10.5005 -10.4994 -10.4945 -10.4903 -10.4880 -10.4854 -10.4830
   -10.4828 -10.4813 -10.4811 -10.4790 -10.4787 -10.4748 -10.4736 -10.4714
   -10.4700 -10.4671 -10.4651 -10.4649 -10.4614 -10.4602 -10.4586 -10.4574
   -10.4569 -10.4563 -10.4557 -10.4546 -10.4534 -10.4516 -10.4487 -10.4483
    -9.1274  -8.9152  -8.8806  -8.7053  -8.4531  -8.2837  -8.1918  -8.0594
    -8.0450  -7.9186  -7.8173  -7.7728  -7.7256  -7.6233  -7.3621  -7.1940
    -6.9304  -6.9261  -6.7140  -6.6456  -6.6310  -6.6190  -6.5802  -6.4237
    -6.4056  -6.4028  -6.3839  -6.2195  -6.1742  -6.1214  -6.1038  -6.0914
     1.4487   1.4831   1.8632   1.8689   2.1532   2.2621   2.3641   2.5179
     2.6137   2.6485   2.9081   3.0353   3.4996   3.8851   3.8940   4.1971
     4.4559   4.4662   4.4826   4.6263   4.6479   4.7817   4.8156   4.8824
     4.9294   4.9518   5.0475   5.1667   5.2387   5.2414   5.2874   5.4135
     5.4486   5.6091   5.7528   5.8087   5.8127   5.8700   5.9538   6.0104
     6.0280   6.1216   6.1995   6.2283   6.3167   6.3229   6.4009   6.5944
     6.6006   6.7299   6.9219   6.9580   7.1393   7.1840   7.1943   7.2373
     7.2984   7.4211   7.4753   7.5273   7.5466   7.5553   7.5624   7.7327
     7.7367   7.7931   7.8112   7.8706   7.9336   8.0879   8.0965   8.0979
     8.1512   8.1535   8.2799   8.2983   8.3359   8.3876   8.4400   8.4880
     8.5005   8.5102   8.5216   8.5457   8.5650   8.5827   8.5960   8.5972
     8.6705   8.7013   8.7496   8.7509   8.7546   8.7575   8.8920   8.9985
    12.8871  13.4377  13.7860  14.1544  14.1608  14.1980  14.3933  14.5536
    14.5738  14.6753  14.7417  15.0156  15.4469  15.7758  15.8198  16.0605
    17.2019  17.2682  17.4029  17.4378  17.6525  17.6761  17.7087  17.7190
    17.9240  17.9426  18.0225  18.0980  18.1155  18.1389  18.1797  18.2326
    18.2339  18.3488  18.3755  18.5217  18.7532  18.7849  18.9919  19.0203
    19.2802  19.3857  19.5472  19.6577  19.6984  19.9151  20.2014  20.5673

          k =-0.3750 0.3750-0.1238 ( 30551 PWs)   bands (ev):

   -11.6225 -11.6225 -11.6108 -11.6055 -11.6015 -11.5437 -11.5437 -11.5124
   -11.4831 -11.4830 -11.4495 -11.4440 -11.2803 -11.1898 -11.1898 -11.0791
   -10.9806 -10.9787 -10.9255 -10.9255 -10.7123 -10.7013 -10.7013 -10.7004
   -10.6962 -10.6930 -10.6821 -10.6821 -10.6778 -10.6769 -10.6661 -10.6661
   -10.6631 -10.6568 -10.6555 -10.6555 -10.6313 -10.6238 -10.6238 -10.6128
   -10.5325 -10.5325 -10.5318 -10.5311 -10.5285 -10.5280 -10.5280 -10.5275
   -10.5164 -10.5048 -10.5048 -10.4965 -10.4697 -10.4695 -10.4667 -10.4667
   -10.4658 -10.4646 -10.4646 -10.4611 -10.4611 -10.4606 -10.4606 -10.4560
   -10.4237 -10.4236 -10.4236 -10.4225 -10.4221 -10.4181 -10.4181 -10.4175
   -10.4162 -10.4162 -10.4153 -10.4148 -10.4120 -10.4106 -10.4097 -10.4097
    -9.2516  -9.0372  -9.0372  -8.7980  -8.1363  -8.1154  -8.1154  -8.0111
    -7.9762  -7.9762  -7.7115  -7.7115  -7.6836  -7.6655  -7.6438  -7.6389
    -7.6358  -7.6339  -7.3295  -7.3295  -6.5311  -6.2642  -6.2642  -6.2049
    -6.1730  -6.1459  -6.1459  -6.0517  -5.9765  -5.9572  -5.9355  -5.9355
     1.5265   1.6778   1.7228   1.7229   1.7659   1.9897   2.1034   2.1034
     2.3673   2.3673   2.5283   2.5392   4.0420   4.0455   4.0455   4.0558
     4.0558   4.0818   4.5381   4.5463   4.5495   4.6032   4.6065   4.6065
     4.7738   4.7738   4.7921   4.8367   5.3159   5.3815   5.4440   5.4440
     5.6548   5.9069   5.9069   5.9167   5.9167   6.0044   6.2049   6.2472
     6.4520   6.4520   6.6133   6.6620   6.7111   6.7408   6.7442   6.8718
     6.8726   6.8726   7.0175   7.2020   7.2020   7.2191   7.2191   7.6249
     7.6694   7.7088   7.7088   7.7281   7.8353   7.9724   7.9724   7.9813
     8.0220   8.0233   8.0363   8.0363   8.0848   8.0848   8.1351   8.1545
     8.1722   8.1722   8.1747   8.1762   8.1765   8.2083   8.2211   8.2211
     8.2789   8.3352   8.3352   8.3574   8.3632   8.4486   8.4914   8.4915
     8.5490   8.6038   8.6038   8.6084   8.7588   8.8963   8.8963   9.0815
    11.9551  12.6836  12.6836  13.1826  14.4273  14.5920  14.5920  14.6033
    14.8847  14.9290  14.9290  14.9403  15.0507  15.4758  15.4758  15.7274
    16.0027  16.0727  16.2240  16.2240  16.3300  16.3300  16.4457  16.5270
    17.2474  17.2474  17.3664  17.4698  18.7191  18.7191  18.7252  19.3023
    19.4715  19.6883  19.6989  19.7426  19.7426  19.7601  19.7804  19.7804
    20.1326  20.1831  20.1832  20.2113  20.2185  20.5105  20.5843  20.5844

          k =-0.3750 0.3750-0.3715 ( 30547 PWs)   bands (ev):

   -11.5556 -11.5556 -11.5512 -11.5374 -11.5362 -11.4878 -11.4878 -11.4532
   -11.4076 -11.4076 -11.3669 -11.3620 -11.2345 -11.1555 -11.1555 -11.0615
   -11.0447 -11.0410 -10.9888 -10.9888 -10.8098 -10.8083 -10.8083 -10.8077
   -10.8057 -10.8034 -10.8034 -10.8016 -10.7411 -10.6758 -10.6758 -10.6727
   -10.6435 -10.6362 -10.6362 -10.6361 -10.6022 -10.5908 -10.5908 -10.5817
   -10.5276 -10.5276 -10.5253 -10.5241 -10.5170 -10.5170 -10.5156 -10.5154
   -10.5121 -10.5014 -10.5014 -10.4936 -10.4781 -10.4740 -10.4740 -10.4703
   -10.4687 -10.4686 -10.4648 -10.4640 -10.4640 -10.4634 -10.4634 -10.4602
   -10.4586 -10.4586 -10.4563 -10.4559 -10.4535 -10.4513 -10.4513 -10.4509
   -10.4365 -10.4363 -10.4363 -10.4352 -10.4327 -10.4327 -10.4326 -10.4325
    -9.1664  -8.9393  -8.9393  -8.6907  -8.4798  -8.3491  -8.3491  -8.1684
    -7.8323  -7.8323  -7.6170  -7.5752  -7.5752  -7.5577  -7.5125  -7.4633
    -7.4180  -7.3795  -7.1813  -7.1813  -6.4759  -6.3927  -6.3586  -6.3113
    -6.3113  -6.2415  -6.2415  -6.0738  -6.0670  -6.0287  -6.0064  -6.0064
     1.6684   1.6706   1.7080   1.7880   1.7880   2.0873   2.0873   2.2308
     2.4761   2.6384   2.6384   2.9627   3.6957   3.8668   3.8668   4.1059
     4.1135   4.1135   4.2998   4.5974   4.8505   4.8562   4.8933   4.8933
     5.0573   5.0573   5.1306   5.1381   5.2782   5.2782   5.4552   5.5171
     5.5550   5.6432   5.6432   5.7682   5.8753   5.8753   5.8814   6.0898
     6.1720   6.1720   6.2662   6.4399   6.4958   6.5664   6.6560   6.7011
     6.7293   6.7293   6.9703   7.0966   7.0966   7.1717   7.1717   7.3484
     7.5770   7.6039   7.6046   7.7357   7.7357   7.7961   7.7961   7.8002
     7.8510   7.8790   7.8790   7.9651   8.0222   8.0222   8.0328   8.1149
     8.1149   8.1680   8.1701   8.2419   8.3158   8.3166   8.3166   8.3698
     8.3861   8.4637   8.4801   8.4801   8.4816   8.5643   8.5754   8.5754
     8.5959   8.6084   8.6084   8.6265   8.8551   8.9431   8.9431   9.0829
    12.4088  13.0285  13.0285  13.4466  14.4823  14.5876  14.6472  14.6472
    14.6590  14.8774  14.8774  15.0150  15.2082  15.5135  15.5135  15.8538
    16.4955  16.5834  16.7121  16.7121  16.8051  16.8051  16.9097  16.9665
    17.4820  17.4820  17.5370  17.6506  18.6552  18.6552  18.6792  18.9764
    18.9996  19.0525  19.1428  19.1428  19.2093  19.2370  19.2370  19.2927
    19.9892  19.9892  20.0617  20.1777  20.2657  20.3844  20.3844  20.3860

          k =-0.3750 0.3750-0.6191 ( 30583 PWs)   bands (ev):

   -11.4611 -11.4505 -11.4505 -11.4457 -11.4268 -11.4173 -11.4173 -11.3784
   -11.2827 -11.2827 -11.2130 -11.2084 -11.2038 -11.1854 -11.1854 -11.1521
   -11.1405 -11.1119 -11.0605 -11.0605 -11.0120 -11.0084 -10.9857 -10.9857
   -10.8667 -10.8141 -10.8141 -10.8076 -10.7731 -10.7271 -10.7271 -10.6839
   -10.6026 -10.5978 -10.5978 -10.5962 -10.5728 -10.5680 -10.5680 -10.5674
   -10.5524 -10.5507 -10.5507 -10.5457 -10.5313 -10.5312 -10.5312 -10.5270
   -10.5046 -10.5003 -10.4961 -10.4961 -10.4959 -10.4958 -10.4958 -10.4894
   -10.4813 -10.4784 -10.4784 -10.4769 -10.4763 -10.4748 -10.4729 -10.4729
   -10.4688 -10.4667 -10.4667 -10.4628 -10.4606 -10.4585 -10.4570 -10.4570
   -10.4570 -10.4570 -10.4563 -10.4548 -10.4536 -10.4519 -10.4519 -10.4506
    -9.0119  -8.7853  -8.7816  -8.7816  -8.5838  -8.5838  -8.5300  -8.3523
    -7.6495  -7.6495  -7.5528  -7.5439  -7.5439  -7.5223  -7.3454  -7.2654
    -7.1076  -7.0659  -6.9140  -6.9140  -6.7198  -6.6820  -6.5942  -6.5942
    -6.3652  -6.2144  -6.1910  -6.1910  -6.1071  -6.1071  -6.1037  -6.0985
     1.6355   1.6517   1.9112   1.9112   2.0068   2.0279   2.0279   2.3006
     2.6640   3.0677   3.0677   3.1878   3.5077   3.5077   3.5260   3.9567
     4.3324   4.3467   4.3467   4.6807   4.8716   4.8717   4.9782   4.9876
     5.2293   5.2293   5.2732   5.2732   5.3881   5.4001   5.5778   5.5778
     5.6308   5.6650   5.7159   5.7465   5.8625   5.9434   5.9434   5.9571
     6.0713   6.1215   6.1444   6.1444   6.1508   6.2552   6.3603   6.3603
     6.3650   6.6211   6.6341   6.7526   6.7945   6.7945   6.9136   6.9136
     7.3214   7.3782   7.6053   7.6053   7.6627   7.6627   7.7438   7.8230
     7.8271   7.9077   7.9213   7.9843   7.9843   8.0311   8.0311   8.1360
     8.2101   8.2101   8.2338   8.2445   8.3724   8.3724   8.4059   8.4655
     8.4968   8.4968   8.4982   8.5180   8.5517   8.5640   8.5640   8.5872
     8.7697   8.7697   8.7731   8.7745   8.8710   8.9066   8.9066   8.9847
    13.1302  13.5810  13.5810  13.8491  13.9075  14.1662  14.1662  14.2275
    14.9361  15.0583  15.2492  15.2492  15.4788  15.4788  15.6194  15.8572
    17.3009  17.4102  17.5141  17.5141  17.5517  17.5517  17.6545  17.6619
    17.8276  17.8752  17.8752  17.9689  18.2452  18.2832  18.2832  18.3071
    18.3321  18.3511  18.4269  18.4269  18.4531  18.4531  18.5758  18.5894
    19.9003  19.9003  20.0426  20.0945  20.0945  20.2359  20.3457  20.4899

     highest occupied, lowest unoccupied level (ev):     9.3320   10.8053

!    total energy              =   -3638.19442371 Ry
     Harris-Foulkes estimate   =   -3638.19442371 Ry
     estimated scf accuracy    <          1.4E-09 Ry

     The total energy is the sum of the following terms:

     one-electron contribution =   -1017.32586949 Ry
     hartree contribution      =     834.97461854 Ry
     xc contribution           =   -1002.54654778 Ry
     ewald contribution        =   -2453.29662499 Ry

     convergence has been achieved in  10 iterations

     Forces acting on atoms (Ry/au):

     atom    1 type  1   force =     0.00000000    0.00000000    0.00000000
     atom    2 type  1   force =     0.00000000    0.00000000    0.00000000
     atom    3 type  1   force =     0.00000000    0.00000000    0.00000000
     atom    4 type  1   force =     0.00000000    0.00000000    0.00000000
     atom    5 type  1   force =     0.00000000    0.00000000    0.00000000
     atom    6 type  1   force =     0.00000000    0.00000000    0.00000000
     atom    7 type  1   force =     0.00000000    0.00000000    0.00000000
     atom    8 type  1   force =     0.00000000    0.00000000    0.00000000
     atom    9 type  1   force =    -0.00000025   -0.00000025   -0.00000336
     atom   10 type  1   force =     0.00000288   -0.00000288    0.00000213
     atom   11 type  1   force =    -0.00000288    0.00000288    0.00000213
     atom   12 type  1   force =     0.00000025    0.00000025   -0.00000336
     atom   13 type  1   force =    -0.00000025   -0.00000025    0.00000336
     atom   14 type  1   force =     0.00000288   -0.00000288   -0.00000213
     atom   15 type  1   force =    -0.00000288    0.00000288   -0.00000213
     atom   16 type  1   force =     0.00000025    0.00000025    0.00000336
     atom   17 type  2   force =    -0.00520064   -0.00520064    0.00000000
     atom   18 type  2   force =    -0.00519993   -0.00520028    0.00000000
     atom   19 type  2   force =    -0.00520028   -0.00519993    0.00000000
     atom   20 type  2   force =    -0.00520090   -0.00520090    0.00000000
     atom   21 type  2   force =    -0.00520065   -0.00520065    0.00000000
     atom   22 type  2   force =    -0.00520050   -0.00520071    0.00000000
     atom   23 type  2   force =    -0.00520071   -0.00520050   -0.00000000
     atom   24 type  2   force =    -0.00520037   -0.00520037    0.00000000
     atom   25 type  2   force =     0.00520090    0.00520090    0.00000000
     atom   26 type  2   force =     0.00520028    0.00519993    0.00000000
     atom   27 type  2   force =     0.00519993    0.00520028    0.00000000
     atom   28 type  2   force =     0.00520064    0.00520064    0.00000000
     atom   29 type  2   force =     0.00520037    0.00520037    0.00000000
     atom   30 type  2   force =     0.00520071    0.00520050   -0.00000000
     atom   31 type  2   force =     0.00520050    0.00520071    0.00000000
     atom   32 type  2   force =     0.00520065    0.00520065    0.00000000
     atom   33 type  2   force =     0.00519966   -0.00519993   -0.00000001
     atom   34 type  2   force =     0.00520057   -0.00520057    0.00000003
     atom   35 type  2   force =     0.00520020   -0.00520020   -0.00000025
     atom   36 type  2   force =     0.00519993   -0.00519966   -0.00000001
     atom   37 type  2   force =     0.00519966   -0.00519993    0.00000001
     atom   38 type  2   force =     0.00520057   -0.00520057   -0.00000003
     atom   39 type  2   force =     0.00520020   -0.00520020    0.00000025
     atom   40 type  2   force =     0.00519993   -0.00519966    0.00000001
     atom   41 type  2   force =    -0.00519993    0.00519966   -0.00000001
     atom   42 type  2   force =    -0.00520020    0.00520020   -0.00000025
     atom   43 type  2   force =    -0.00520057    0.00520057    0.00000003
     atom   44 type  2   force =    -0.00519966    0.00519993   -0.00000001
     atom   45 type  2   force =    -0.00519993    0.00519966    0.00000001
     atom   46 type  2   force =    -0.00520020    0.00520020    0.00000025
     atom   47 type  2   force =    -0.00520057    0.00520057   -0.00000003
     atom   48 type  2   force =    -0.00519966    0.00519993    0.00000001

     Total force =     0.041602     Total SCF correction =     0.000084


     entering subroutine stress ...

          total   stress  (Ry/bohr**3)                   (kbar)     P=   30.93
   0.00016349  -0.00000001   0.00000000         24.05     -0.00      0.00
  -0.00000001   0.00016349   0.00000000         -0.00     24.05      0.00
   0.00000000   0.00000000   0.00030378          0.00      0.00     44.69


     init_run     :    328.82s CPU    329.83s WALL (       1 calls)
     electrons    :  11254.42s CPU  11287.25s WALL (       1 calls)
     forces       :    251.31s CPU    251.61s WALL (       1 calls)
     stress       :    330.95s CPU    331.43s WALL (       1 calls)

     Called by init_run:
     wfcinit      :    309.18s CPU    310.03s WALL (       1 calls)
     potinit      :      2.23s CPU      2.25s WALL (       1 calls)

     Called by electrons:
     c_bands      :  10312.82s CPU  10339.92s WALL (      10 calls)
     sum_band     :    871.09s CPU    875.29s WALL (      10 calls)
     v_of_rho     :      5.74s CPU      5.82s WALL (      11 calls)
     newd         :     70.33s CPU     71.87s WALL (      11 calls)
     mix_rho      :      0.87s CPU      0.89s WALL (      10 calls)

     Called by c_bands:
     init_us_2    :     12.25s CPU     12.28s WALL (     414 calls)
     cegterg      :  10285.12s CPU  10312.01s WALL (     180 calls)

     Called by sum_band:
     sum_band:bec :      0.64s CPU      0.66s WALL (     180 calls)
     addusdens    :    100.26s CPU    101.71s WALL (      10 calls)

     Called by *egterg:
     h_psi        :   3928.66s CPU   3941.85s WALL (     886 calls)
     s_psi        :   1544.61s CPU   1544.96s WALL (     886 calls)
     g_psi        :      3.77s CPU      3.73s WALL (     688 calls)
     cdiaghg      :    770.29s CPU    770.34s WALL (     868 calls)

     Called by h_psi:
     add_vuspsi   :   1544.88s CPU   1545.15s WALL (     886 calls)

     General routines
     calbec       :   2295.60s CPU   2296.43s WALL (    1156 calls)
     fft          :      5.89s CPU      6.07s WALL (     197 calls)
     ffts         :      0.11s CPU      0.11s WALL (      21 calls)
     fftw         :    824.38s CPU    834.78s WALL (  293134 calls)
     interpolate  :      0.81s CPU      0.85s WALL (      21 calls)

     Parallel routines
     fft_scatter  :    147.32s CPU    150.97s WALL (  293352 calls)

     PWSCF        :     3h22m CPU        3h23m WALL


   This run was terminated on:  11:48: 8  12May2018            

=------------------------------------------------------------------------------=
   JOB DONE.
=------------------------------------------------------------------------------=
