
     Program PWSCF v.5.4.0 starts on 12May2018 at 11:48: 8 

     This program is part of the open-source Quantum ESPRESSO suite
     for quantum simulation of materials; please cite
         "P. Giannozzi et al., J. Phys.:Condens. Matter 21 395502 (2009);
          URL http://www.quantum-espresso.org", 
     in publications or presentations arising from this work. More details at
     http://www.quantum-espresso.org/quote

     Parallel version (MPI), running on     4 processors
     R & G space division:  proc/nbgrp/npool/nimage =       4
     Reading input from scf.in
Warning: card &IONS ignored
Warning: card     ION_DYNAMICS='DAMP' ignored
Warning: card     POT_EXTRAPOLATION='SECOND_ORDER' ignored
Warning: card     WFC_EXTRAPOLATION='SECOND_ORDER' ignored
Warning: card / ignored

     Current dimensions of program PWSCF are:
     Max number of different atomic species (ntypx) = 10
     Max number of k-points (npk) =  40000
     Max angular momentum in pseudopotentials (lmaxx) =  3
               file Sn.pbesol-dn-rrkjus.UPF: wavefunction(s)  5S 4D renormalized
               file O.pbesol-nl-rrkjus.UPF: wavefunction(s)  2S renormalized

     Subspace diagonalization in iterative solution of the eigenvalue problem:
     a serial algorithm will be used

     Found symmetry operation: I + ( -0.5000  0.0000  0.0000)
     This is a supercell, fractional translations are disabled

     Parallelization info
     --------------------
     sticks:   dense  smooth     PW     G-vecs:    dense   smooth      PW
     Min        3863    1545    413               243457    61627    8576
     Max        3864    1546    414               243460    61638    8577
     Sum       15453    6181   1653               973835   246527   34307



     bravais-lattice index     =            0
     lattice parameter (alat)  =      18.0000  a.u.
     unit-cell volume          =    3924.9360 (a.u.)^3
     number of atoms/cell      =           48
     number of atomic types    =            2
     number of electrons       =       416.00
     number of Kohn-Sham states=          256
     kinetic-energy cutoff     =      60.0000  Ry
     charge density cutoff     =     600.0000  Ry
     convergence threshold     =      2.0E-09
     mixing beta               =       0.7000
     number of iterations used =            8  plain     mixing
     Exchange-correlation      = PBESOL ( 1  4 10  8 0 0)

     celldm(1)=  18.000000  celldm(2)=   0.000000  celldm(3)=   0.000000
     celldm(4)=   0.000000  celldm(5)=   0.000000  celldm(6)=   0.000000

     crystal axes: (cart. coord. in units of alat)
               a(1) = (   1.000000   0.000000   0.000000 )  
               a(2) = (   0.000000   1.000000   0.000000 )  
               a(3) = (   0.000000   0.000000   0.673000 )  

     reciprocal axes: (cart. coord. in units 2 pi/alat)
               b(1) = (  1.000000  0.000000  0.000000 )  
               b(2) = (  0.000000  1.000000  0.000000 )  
               b(3) = (  0.000000  0.000000  1.485884 )  


     PseudoPot. # 1 for Sn read from file:
     /home/raja/pseudo/Sn.pbesol-dn-rrkjus.UPF
     MD5 check sum: b150398e14deaf400293d9009fcc5675
     Pseudo is Ultrasoft + core correction, Zval = 14.0
     Generated using "atomic" code by A. Dal Corso  v.5.4.0
     Using radial grid of 1243 points,  6 beta functions with: 
                l(1) =   0
                l(2) =   0
                l(3) =   1
                l(4) =   1
                l(5) =   2
                l(6) =   2
     Q(r) pseudized with 0 coefficients 


     PseudoPot. # 2 for  O read from file:
     /home/raja/pseudo/O.pbesol-nl-rrkjus.UPF
     MD5 check sum: c80495934389d02e713646931b6a7a51
     Pseudo is Ultrasoft + core correction, Zval =  6.0
     Generated using "atomic" code by A. Dal Corso  v.5.4.0
     Using radial grid of 1095 points,  4 beta functions with: 
                l(1) =   0
                l(2) =   0
                l(3) =   1
                l(4) =   1
     Q(r) pseudized with 0 coefficients 


     atomic species   valence    mass     pseudopotential
        Sn            14.00   118.71000     Sn( 1.00)
        O              6.00    15.99900      O( 1.00)

      8 Sym. Ops., with inversion, found



   Cartesian axes

     site n.     atom                  positions (alat units)
         1           Sn  tau(   1) = (   0.0000000   0.0000000   0.0000000  )
         2           Sn  tau(   2) = (   0.5000000   0.0000000   0.0000000  )
         3           Sn  tau(   3) = (   0.0000000   0.5000000   0.0000000  )
         4           Sn  tau(   4) = (   0.5000000   0.5000000   0.0000000  )
         5           Sn  tau(   5) = (   0.0000000   0.0000000   0.3365000  )
         6           Sn  tau(   6) = (   0.5000000   0.0000000   0.3365000  )
         7           Sn  tau(   7) = (   0.0000000   0.5000000   0.3365000  )
         8           Sn  tau(   8) = (   0.5000000   0.5000000   0.3365000  )
         9           Sn  tau(   9) = (   0.2500000   0.2500000   0.1682500  )
        10           Sn  tau(  10) = (   0.7500000   0.2500000   0.1682500  )
        11           Sn  tau(  11) = (   0.2500000   0.7500000   0.1682500  )
        12           Sn  tau(  12) = (   0.7500000   0.7500000   0.1682500  )
        13           Sn  tau(  13) = (   0.2500000   0.2500000   0.5047500  )
        14           Sn  tau(  14) = (   0.7500000   0.2500000   0.5047500  )
        15           Sn  tau(  15) = (   0.2500000   0.7500000   0.5047500  )
        16           Sn  tau(  16) = (   0.7500000   0.7500000   0.5047500  )
        17           O   tau(  17) = (   0.1535000   0.1535000   0.0000000  )
        18           O   tau(  18) = (   0.6535000   0.1535000   0.0000000  )
        19           O   tau(  19) = (   0.1535000   0.6535000   0.0000000  )
        20           O   tau(  20) = (   0.6535000   0.6535000   0.0000000  )
        21           O   tau(  21) = (   0.1535000   0.1535000   0.3365000  )
        22           O   tau(  22) = (   0.6535000   0.1535000   0.3365000  )
        23           O   tau(  23) = (   0.1535000   0.6535000   0.3365000  )
        24           O   tau(  24) = (   0.6535000   0.6535000   0.3365000  )
        25           O   tau(  25) = (   0.3465000   0.3465000   0.0000000  )
        26           O   tau(  26) = (   0.8465000   0.3465000   0.0000000  )
        27           O   tau(  27) = (   0.3465000   0.8465000   0.0000000  )
        28           O   tau(  28) = (   0.8465000   0.8465000   0.0000000  )
        29           O   tau(  29) = (   0.3465000   0.3465000   0.3365000  )
        30           O   tau(  30) = (   0.8465000   0.3465000   0.3365000  )
        31           O   tau(  31) = (   0.3465000   0.8465000   0.3365000  )
        32           O   tau(  32) = (   0.8465000   0.8465000   0.3365000  )
        33           O   tau(  33) = (   0.0965000   0.4035000   0.1682500  )
        34           O   tau(  34) = (   0.5965000   0.4035000   0.1682500  )
        35           O   tau(  35) = (   0.0965000   0.9035000   0.1682500  )
        36           O   tau(  36) = (   0.5965000   0.9035000   0.1682500  )
        37           O   tau(  37) = (   0.0965000   0.4035000   0.5047500  )
        38           O   tau(  38) = (   0.5965000   0.4035000   0.5047500  )
        39           O   tau(  39) = (   0.0965000   0.9035000   0.5047500  )
        40           O   tau(  40) = (   0.5965000   0.9035000   0.5047500  )
        41           O   tau(  41) = (   0.4035000   0.0965000   0.1682500  )
        42           O   tau(  42) = (   0.9035000   0.0965000   0.1682500  )
        43           O   tau(  43) = (   0.4035000   0.5965000   0.1682500  )
        44           O   tau(  44) = (   0.9035000   0.5965000   0.1682500  )
        45           O   tau(  45) = (   0.4035000   0.0965000   0.5047500  )
        46           O   tau(  46) = (   0.9035000   0.0965000   0.5047500  )
        47           O   tau(  47) = (   0.4035000   0.5965000   0.5047500  )
        48           O   tau(  48) = (   0.9035000   0.5965000   0.5047500  )

     number of k points=    18
                       cart. coord. in units 2pi/alat
        k(    1) = (   0.1250000   0.1250000   0.1238237), wk =   0.0833333
        k(    2) = (   0.1250000   0.1250000   0.3714710), wk =   0.0833333
        k(    3) = (   0.1250000   0.1250000   0.6191184), wk =   0.0833333
        k(    4) = (   0.1250000   0.3750000   0.1238237), wk =   0.1666667
        k(    5) = (   0.1250000   0.3750000   0.3714710), wk =   0.1666667
        k(    6) = (   0.1250000   0.3750000   0.6191184), wk =   0.1666667
        k(    7) = (   0.3750000   0.3750000   0.1238237), wk =   0.0833333
        k(    8) = (   0.3750000   0.3750000   0.3714710), wk =   0.0833333
        k(    9) = (   0.3750000   0.3750000   0.6191184), wk =   0.0833333
        k(   10) = (  -0.1250000   0.1250000  -0.1238237), wk =   0.0833333
        k(   11) = (  -0.1250000   0.1250000  -0.3714710), wk =   0.0833333
        k(   12) = (  -0.1250000   0.1250000  -0.6191184), wk =   0.0833333
        k(   13) = (  -0.1250000   0.3750000  -0.1238237), wk =   0.1666667
        k(   14) = (  -0.1250000   0.3750000  -0.3714710), wk =   0.1666667
        k(   15) = (  -0.1250000   0.3750000  -0.6191184), wk =   0.1666667
        k(   16) = (  -0.3750000   0.3750000  -0.1238237), wk =   0.0833333
        k(   17) = (  -0.3750000   0.3750000  -0.3714710), wk =   0.0833333
        k(   18) = (  -0.3750000   0.3750000  -0.6191184), wk =   0.0833333

     Dense  grid:   973835 G-vectors     FFT dimensions: ( 144, 144,  96)

     Smooth grid:   246527 G-vectors     FFT dimensions: (  90,  90,  60)

     Largest allocated arrays     est. size (Mb)     dimensions
        Kohn-Sham Wavefunctions        30.21 Mb     (    7733,  256)
        NL pseudopotentials            64.19 Mb     (    7733,  544)
        Each V/rho on FFT grid          7.59 Mb     (  497664)
        Each G-vector array             1.86 Mb     (  243459)
        G-vector shells                 0.34 Mb     (   44050)
     Largest temporary arrays     est. size (Mb)     dimensions
        Auxiliary wavefunctions       120.83 Mb     (    7733, 1024)
        Each subspace H/S matrix       16.00 Mb     (    1024, 1024)
        Each <psi_i|beta_j> matrix      2.12 Mb     (     544,  256)
        Arrays for rho mixing          60.75 Mb     (  497664,    8)

     Initial potential from superposition of free atoms

     starting charge  415.97986, renormalised to  416.00000
     Starting wfc are  272 randomized atomic wfcs

     total cpu time spent up to now is      333.6 secs

     per-process dynamical memory:   774.7 Mb

     Self-consistent Calculation

     iteration #  1     ecut=    60.00 Ry     beta=0.70
     Davidson diagonalization with overlap
     ethr =  1.00E-02,  avg # of iterations =  3.1

     total cpu time spent up to now is     1304.3 secs

     total energy              =   -3632.59639656 Ry
     Harris-Foulkes estimate   =   -3641.57681660 Ry
     estimated scf accuracy    <      11.97813859 Ry

     iteration #  2     ecut=    60.00 Ry     beta=0.70
     Davidson diagonalization with overlap
     ethr =  2.88E-03,  avg # of iterations =  3.4

     total cpu time spent up to now is     2600.2 secs

     total energy              =   -3635.53190884 Ry
     Harris-Foulkes estimate   =   -3642.02051987 Ry
     estimated scf accuracy    <      13.48168625 Ry

     iteration #  3     ecut=    60.00 Ry     beta=0.70
     Davidson diagonalization with overlap
     ethr =  2.88E-03,  avg # of iterations =  2.9

     total cpu time spent up to now is     3611.3 secs

     total energy              =   -3638.18669898 Ry
     Harris-Foulkes estimate   =   -3638.19390876 Ry
     estimated scf accuracy    <       0.03943519 Ry

     iteration #  4     ecut=    60.00 Ry     beta=0.70
     Davidson diagonalization with overlap
     ethr =  9.48E-06,  avg # of iterations =  9.0

     total cpu time spent up to now is     5291.7 secs

     total energy              =   -3638.20317335 Ry
     Harris-Foulkes estimate   =   -3638.20349758 Ry
     estimated scf accuracy    <       0.00100282 Ry

     iteration #  5     ecut=    60.00 Ry     beta=0.70
     Davidson diagonalization with overlap
     c_bands:  1 eigenvalues not converged
     ethr =  2.41E-07,  avg # of iterations =  6.3

     total cpu time spent up to now is     6362.6 secs

     total energy              =   -3638.20332201 Ry
     Harris-Foulkes estimate   =   -3638.20332271 Ry
     estimated scf accuracy    <       0.00006880 Ry

     iteration #  6     ecut=    60.00 Ry     beta=0.70
     Davidson diagonalization with overlap
     ethr =  1.65E-08,  avg # of iterations =  2.4

     total cpu time spent up to now is     7417.0 secs

     total energy              =   -3638.20333253 Ry
     Harris-Foulkes estimate   =   -3638.20333567 Ry
     estimated scf accuracy    <       0.00000805 Ry

     iteration #  7     ecut=    60.00 Ry     beta=0.70
     Davidson diagonalization with overlap
     ethr =  1.94E-09,  avg # of iterations =  3.0

     total cpu time spent up to now is     8476.3 secs

     total energy              =   -3638.20333387 Ry
     Harris-Foulkes estimate   =   -3638.20333735 Ry
     estimated scf accuracy    <       0.00000920 Ry

     iteration #  8     ecut=    60.00 Ry     beta=0.70
     Davidson diagonalization with overlap
     ethr =  1.94E-09,  avg # of iterations =  2.1

     total cpu time spent up to now is     9379.2 secs

     total energy              =   -3638.20333544 Ry
     Harris-Foulkes estimate   =   -3638.20333546 Ry
     estimated scf accuracy    <       0.00000005 Ry

     iteration #  9     ecut=    60.00 Ry     beta=0.70
     Davidson diagonalization with overlap
     ethr =  1.19E-11,  avg # of iterations =  3.0

     total cpu time spent up to now is    10697.6 secs

     total energy              =   -3638.20333546 Ry
     Harris-Foulkes estimate   =   -3638.20333548 Ry
     estimated scf accuracy    <       0.00000004 Ry

     iteration # 10     ecut=    60.00 Ry     beta=0.70
     Davidson diagonalization with overlap
     ethr =  9.44E-12,  avg # of iterations =  2.0

     total cpu time spent up to now is    11608.6 secs

     total energy              =   -3638.20333547 Ry
     Harris-Foulkes estimate   =   -3638.20333547 Ry
     estimated scf accuracy    <          2.2E-09 Ry

     iteration # 11     ecut=    60.00 Ry     beta=0.70
     Davidson diagonalization with overlap
     ethr =  5.39E-13,  avg # of iterations =  2.1

     total cpu time spent up to now is    12596.3 secs

     End of self-consistent calculation

          k = 0.1250 0.1250 0.1238 ( 30761 PWs)   bands (ev):

   -11.7990 -11.7345 -11.7345 -11.7157 -11.7157 -11.6038 -11.5929 -11.5690
   -11.5653 -11.5567 -11.5478 -11.5478 -11.5381 -11.4026 -11.4026 -11.1339
   -11.1115 -11.0888 -11.0600 -10.9985 -10.8582 -10.8581 -10.8407 -10.8407
   -10.8377 -10.8376 -10.8248 -10.8221 -10.8192 -10.8169 -10.8148 -10.8148
   -10.8126 -10.7944 -10.7904 -10.7832 -10.7832 -10.7737 -10.7737 -10.7247
   -10.6764 -10.6750 -10.6750 -10.6720 -10.6716 -10.6715 -10.6715 -10.6700
   -10.6691 -10.6412 -10.6412 -10.6307 -10.6277 -10.6253 -10.6253 -10.6223
   -10.6125 -10.6124 -10.6124 -10.6119 -10.6116 -10.6102 -10.6102 -10.5958
   -10.5805 -10.5726 -10.5726 -10.5714 -10.5713 -10.5683 -10.5675 -10.5660
   -10.5656 -10.5651 -10.5649 -10.5640 -10.5623 -10.5623 -10.5586 -10.5586
    -9.5421  -8.9587  -8.9587  -8.6098  -8.6098  -8.2061  -8.1937  -8.1937
    -8.1679  -8.0826  -8.0826  -7.8141  -7.7960  -7.7817  -7.7163  -7.7030
    -7.7015  -7.6507  -7.4001  -6.8842  -6.8842  -6.5412  -6.5412  -6.3640
    -6.3174  -6.2886  -6.2492  -6.1138  -6.1138  -6.0813  -6.0813  -6.0328
     1.1493   1.2726   1.3280   1.7262   2.1118   2.1118   2.3006   2.3012
     2.3012   2.3544   2.3544   3.0721   3.0721   3.4278   3.6763   3.7174
     3.7174   3.9042   3.9042   4.2820   4.2821   4.9031   4.9882   4.9989
     4.9989   5.0583   5.0908   5.1049   5.1049   5.2049   5.3230   5.3517
     5.5274   5.6069   5.6640   5.6640   5.9500   6.0310   6.0310   6.1889
     6.2128   6.2655   6.2655   6.2898   6.5866   6.6567   6.7446   6.7446
     6.7603   6.9500   6.9906   7.0989   7.0989   7.1658   7.2457   7.3534
     7.4184   7.4448   7.4448   7.4594   7.5153   7.5153   7.5912   7.5912
     7.8530   7.9143   7.9382   7.9612   7.9959   7.9968   7.9968   8.0236
     8.0258   8.0258   8.0483   8.1265   8.1265   8.2156   8.2156   8.2724
     8.2799   8.3547   8.3743   8.4043   8.4080   8.4080   8.4167   8.4340
     8.5161   8.5161   8.5214   8.5873   8.5873   8.6719   8.6719   9.2073
    10.5914  13.0648  13.0648  13.7328  13.8713  13.8713  13.8846  13.9772
    14.0070  14.9323  15.0829  15.2323  15.2323  15.4252  15.4253  15.4652
    15.4997  15.5006  16.1196  16.1196  16.1928  16.1928  16.5479  16.5592
    17.0848  17.0848  17.3612  17.3612  17.8443  18.0148  18.2723  18.9378
    19.2153  19.5557  19.6819  19.8051  19.8051  19.8672  19.8920  19.8941
    19.8941  19.9289  19.9608  19.9608  19.9840  19.9840  20.0069  20.0309

          k = 0.1250 0.1250 0.3715 ( 30808 PWs)   bands (ev):

   -11.7354 -11.6692 -11.6691 -11.6475 -11.6475 -11.5303 -11.5246 -11.5076
   -11.5076 -11.5021 -11.4887 -11.4770 -11.4762 -11.3739 -11.3739 -11.2704
   -11.1636 -11.1046 -11.0240 -10.9466 -10.9458 -10.9417 -10.9403 -10.9403
   -10.9383 -10.9383 -10.9380 -10.9124 -10.9124 -10.9058 -10.8316 -10.8316
   -10.7933 -10.7740 -10.7695 -10.7601 -10.7601 -10.7442 -10.7442 -10.7267
   -10.6744 -10.6744 -10.6710 -10.6685 -10.6685 -10.6607 -10.6590 -10.6589
   -10.6570 -10.6388 -10.6388 -10.6347 -10.6285 -10.6265 -10.6256 -10.6240
   -10.6240 -10.6194 -10.6194 -10.6150 -10.6136 -10.6135 -10.6134 -10.6128
   -10.6105 -10.6041 -10.6015 -10.6015 -10.5999 -10.5984 -10.5984 -10.5960
   -10.5844 -10.5844 -10.5829 -10.5829 -10.5828 -10.5821 -10.5820 -10.5819
    -9.4684  -8.8512  -8.8512  -8.6484  -8.4819  -8.4819  -8.3400  -8.3400
    -8.0992  -8.0682  -8.0682  -7.8203  -7.7823  -7.7208  -7.5992  -7.5079
    -7.4923  -7.2900  -7.1846  -6.7810  -6.7810  -6.5489  -6.4878  -6.4878
    -6.4806  -6.4682  -6.3935  -6.2123  -6.2123  -6.1521  -6.1521  -6.1233
     1.1376   1.3691   1.5424   1.5998   2.1668   2.1668   2.3656   2.3656
     2.5391   2.5391   3.0606   3.0877   3.0877   3.1303   3.2903   3.7985
     3.7985   3.9932   3.9933   4.5840   4.5855   4.8067   4.9507   5.0084
     5.0085   5.2407   5.2407   5.2539   5.2539   5.2808   5.3165   5.3165
     5.3343   5.3796   5.4173   5.4304   5.4729   5.7881   5.8341   6.1200
     6.2742   6.2907   6.3449   6.4397   6.4538   6.5793   6.5793   6.6244
     6.7139   6.7901   6.8149   6.8962   6.8962   7.0994   7.1366   7.1366
     7.2092   7.2913   7.4229   7.4800   7.5348   7.5348   7.5550   7.5550
     7.6351   7.6351   7.8028   7.8028   7.9068   7.9068   8.0327   8.0327
     8.1011   8.1858   8.1932   8.2112   8.2518   8.2518   8.2522   8.2793
     8.3250   8.3250   8.3274   8.3853   8.4222   8.4656   8.4737   8.4752
     8.5090   8.5090   8.5370   8.5380   8.5380   8.6452   8.6452   9.1101
    11.3540  13.3984  13.3984  13.8919  14.0387  14.0517  14.1088  14.1785
    14.1785  14.2509  14.9392  14.9392  15.3361  15.3361  15.3910  15.8257
    16.0454  16.0656  16.6191  16.6191  16.6825  16.6825  16.9436  16.9488
    17.3553  17.3553  17.5739  17.5739  17.9132  17.9506  18.0945  18.5406
    18.7882  18.8815  19.2262  19.2262  19.2912  19.2912  19.5236  19.5237
    19.5449  19.5449  19.5562  19.6344  19.7725  19.7899  19.9198  20.0609

          k = 0.1250 0.1250 0.6191 ( 30816 PWs)   bands (ev):

   -11.6214 -11.5628 -11.5628 -11.5274 -11.5274 -11.4958 -11.4881 -11.4880
   -11.4119 -11.4051 -11.4051 -11.4035 -11.3762 -11.3385 -11.3279 -11.3132
   -11.2611 -11.1725 -11.1499 -11.1427 -11.1344 -11.1173 -11.0251 -11.0251
   -10.9940 -10.9940 -10.9692 -10.9692 -10.8949 -10.8949 -10.8846 -10.8487
   -10.7490 -10.7343 -10.7341 -10.7311 -10.7305 -10.7305 -10.7211 -10.7211
   -10.6939 -10.6939 -10.6911 -10.6906 -10.6906 -10.6827 -10.6785 -10.6754
   -10.6616 -10.6498 -10.6371 -10.6355 -10.6354 -10.6341 -10.6341 -10.6334
   -10.6330 -10.6317 -10.6276 -10.6276 -10.6251 -10.6235 -10.6235 -10.6222
   -10.6190 -10.6169 -10.6124 -10.6124 -10.6081 -10.6074 -10.6074 -10.6070
   -10.6070 -10.6063 -10.6018 -10.6018 -10.5990 -10.5990 -10.5990 -10.5964
    -9.3079  -9.0377  -8.6878  -8.6878  -8.5109  -8.5109  -8.3006  -8.3006
    -8.1458  -8.1458  -7.9755  -7.8841  -7.7598  -7.7366  -7.2510  -7.2021
    -7.1527  -7.0591  -6.9655  -6.8704  -6.7813  -6.7568  -6.5999  -6.5999
    -6.4944  -6.3902  -6.3902  -6.3894  -6.3894  -6.3027  -6.2667  -6.2667
     1.1352   1.1903   2.0237   2.0907   2.2786   2.2786   2.3544   2.3544
     2.6066   2.7006   2.8578   2.8578   3.0546   3.0546   3.9861   4.0176
     4.0177   4.1465   4.1465   4.4385   4.4385   4.5452   4.5452   4.7605
     4.7940   5.0560   5.1178   5.1179   5.4409   5.5654   5.5987   5.6198
     5.6719   5.6942   5.7123   5.7123   5.7695   5.7695   5.7907   5.8733
     5.9579   6.0302   6.1226   6.1333   6.2686   6.2686   6.3774   6.3794
     6.3794   6.5006   6.6232   6.6567   6.8062   6.8123   6.8473   6.8703
     7.0895   7.0952   7.3840   7.3840   7.5805   7.5805   7.6361   7.6361
     7.6881   7.6881   7.7767   7.7767   7.8906   7.8906   7.9606   7.9606
     8.1741   8.1741   8.1867   8.2441   8.3343   8.3343   8.3374   8.3566
     8.3631   8.3666   8.3992   8.4132   8.4387   8.4387   8.4603   8.4838
     8.5213   8.5213   8.5326   8.5354   8.5842   8.5842   8.6135   8.9083
    12.3808  13.3881  13.9249  13.9250  14.0684  14.1201  14.1964  14.2138
    14.4787  14.4787  14.6392  14.6392  15.0665  15.0665  15.7660  15.9473
    16.9424  16.9756  17.4222  17.4222  17.4363  17.4363  17.5408  17.5414
    17.7721  17.7721  17.8008  17.8519  17.8519  17.9442  17.9604  17.9799
    18.0123  18.0330  18.4695  18.4695  18.5328  18.5328  18.9286  18.9286
    19.0103  19.0103  19.2039  19.2736  19.5846  19.7066  19.9733  20.1263

          k = 0.1250 0.3750 0.1238 ( 30782 PWs)   bands (ev):

   -11.7550 -11.7171 -11.7148 -11.6693 -11.6680 -11.6659 -11.6628 -11.6613
   -11.6025 -11.5943 -11.5699 -11.5592 -11.4912 -11.4385 -11.2566 -11.1438
   -11.0646 -11.0590 -10.9537 -10.9513 -10.9506 -10.9134 -10.8542 -10.8392
   -10.8363 -10.8356 -10.8327 -10.8316 -10.8299 -10.8288 -10.8232 -10.8223
   -10.8039 -10.7935 -10.7930 -10.7878 -10.7838 -10.7773 -10.7631 -10.7461
   -10.6770 -10.6765 -10.6749 -10.6740 -10.6740 -10.6735 -10.6726 -10.6718
   -10.6696 -10.6567 -10.6386 -10.6348 -10.6260 -10.6252 -10.6198 -10.6160
   -10.6129 -10.6126 -10.6112 -10.6110 -10.6109 -10.6104 -10.6099 -10.6011
   -10.5759 -10.5715 -10.5712 -10.5688 -10.5687 -10.5684 -10.5681 -10.5680
   -10.5667 -10.5659 -10.5652 -10.5646 -10.5637 -10.5625 -10.5611 -10.5590
    -9.4423  -9.2442  -8.8191  -8.5578  -8.4553  -8.2383  -8.2278  -8.2027
    -8.1732  -8.1066  -7.9554  -7.9450  -7.9188  -7.9070  -7.7968  -7.7546
    -7.5313  -7.4069  -7.2365  -7.0762  -7.0147  -6.7098  -6.3081  -6.2669
    -6.2604  -6.2108  -6.2012  -6.1862  -6.1712  -6.1182  -6.1037  -6.0992
     1.3567   1.4141   1.5742   1.7271   1.7666   1.7890   1.9201   1.9619
     2.3394   2.3727   2.5859   2.9866   3.2667   3.5501   3.8507   3.8868
     4.1235   4.3033   4.3055   4.3442   4.3514   4.3732   4.5845   4.7365
     4.8732   4.9529   4.9674   5.2014   5.2206   5.2583   5.3013   5.3810
     5.4703   5.4707   5.5302   5.6262   5.8147   5.8587   5.9246   5.9804
     6.1267   6.1702   6.3855   6.4217   6.4275   6.6059   6.7051   6.7787
     6.9606   7.1005   7.1191   7.2891   7.3245   7.3381   7.3841   7.4090
     7.4691   7.5230   7.5787   7.5929   7.6013   7.6436   7.8031   7.8501
     7.8689   7.8838   7.9237   7.9380   7.9521   7.9564   7.9587   7.9862
     8.0077   8.0177   8.0196   8.0226   8.1296   8.1325   8.1352   8.1507
     8.1630   8.2043   8.2464   8.2909   8.3422   8.3510   8.3766   8.4083
     8.4304   8.5045   8.5194   8.5277   8.5492   8.6110   8.8489   9.0679
    11.2538  12.1498  13.2336  13.4901  13.9001  13.9253  14.2380  14.3430
    14.4776  14.7173  14.8624  14.9128  14.9734  15.0678  15.4989  15.5176
    15.6230  15.7378  15.8646  16.0188  16.2534  16.3053  16.4295  16.4611
    17.2396  17.3321  17.6325  17.7319  17.8535  17.9151  18.0818  18.5411
    19.4587  19.6225  19.7175  19.7193  19.7368  19.7495  19.7524  19.8062
    19.8408  19.9534  19.9632  19.9691  19.9973  20.0374  20.1675  20.1824

          k = 0.1250 0.3750 0.3715 ( 30802 PWs)   bands (ev):

   -11.6956 -11.6523 -11.6506 -11.6180 -11.5999 -11.5997 -11.5977 -11.5922
   -11.5288 -11.5198 -11.5123 -11.5113 -11.4380 -11.3989 -11.2325 -11.1695
   -11.1064 -11.1060 -11.0354 -10.9969 -10.9890 -10.9452 -10.9430 -10.9425
   -10.9418 -10.9415 -10.9400 -10.9361 -10.9350 -10.8847 -10.8524 -10.8132
   -10.7872 -10.7755 -10.7726 -10.7666 -10.7607 -10.7506 -10.7314 -10.7255
   -10.6735 -10.6717 -10.6670 -10.6667 -10.6664 -10.6649 -10.6625 -10.6623
   -10.6594 -10.6531 -10.6363 -10.6325 -10.6308 -10.6254 -10.6242 -10.6238
   -10.6182 -10.6181 -10.6164 -10.6131 -10.6131 -10.6111 -10.6096 -10.6093
   -10.6076 -10.6055 -10.6052 -10.6046 -10.6012 -10.6008 -10.5990 -10.5982
   -10.5843 -10.5843 -10.5837 -10.5831 -10.5826 -10.5822 -10.5812 -10.5808
    -9.3636  -9.1539  -8.7090  -8.6173  -8.5241  -8.4461  -8.3308  -8.2238
    -8.0871  -8.0590  -8.0259  -7.9530  -7.7955  -7.7431  -7.7292  -7.4189
    -7.3488  -7.2882  -7.0894  -6.9684  -6.9279  -6.6431  -6.4706  -6.4231
    -6.3334  -6.3245  -6.3181  -6.2670  -6.2603  -6.2076  -6.1668  -6.1518
     1.3522   1.5190   1.6477   1.7709   1.7999   1.8208   1.8908   2.1780
     2.5457   2.8201   2.8399   2.9832   3.1758   3.2799   3.8647   3.9208
     4.2258   4.3169   4.4539   4.4989   4.5502   4.6251   4.6502   4.9018
     5.0175   5.0444   5.0620   5.1416   5.1557   5.2127   5.2322   5.2931
     5.3520   5.3523   5.3594   5.4231   5.5608   5.5776   5.8170   5.8188
     5.9035   6.2337   6.2882   6.4170   6.4588   6.5757   6.7095   6.7494
     6.7724   6.7745   6.9932   7.1082   7.1580   7.2057   7.2644   7.2738
     7.3306   7.3499   7.3862   7.4882   7.5209   7.5626   7.6316   7.6601
     7.7013   7.7930   7.7969   7.8224   7.8445   7.8931   7.9322   7.9862
     8.0292   8.1068   8.1155   8.1326   8.1472   8.1784   8.1794   8.2214
     8.2813   8.3183   8.3358   8.3495   8.3972   8.4549   8.4672   8.4740
     8.4748   8.5187   8.5242   8.5278   8.5932   8.6494   8.8409   9.0199
    11.8183  12.5620  13.5123  13.6981  14.1208  14.1598  14.2380  14.3577
    14.4145  14.5869  14.5981  14.7903  14.9013  15.1872  15.6353  15.7792
    16.1572  16.2494  16.3775  16.5065  16.7249  16.7681  16.8607  16.8801
    17.4155  17.5206  17.6726  17.7642  17.9521  18.0116  18.1437  18.4962
    18.7506  18.9498  19.0146  19.0894  19.2031  19.2880  19.3207  19.3503
    19.5521  19.6356  19.6490  19.6902  19.7486  19.8012  20.0657  20.3364

          k = 0.1250 0.3750 0.6191 ( 30815 PWs)   bands (ev):

   -11.5984 -11.5658 -11.5534 -11.5410 -11.5387 -11.4902 -11.4843 -11.4718
   -11.4638 -11.4413 -11.4097 -11.3938 -11.3852 -11.3778 -11.3106 -11.2283
   -11.2159 -11.1747 -11.1165 -11.1164 -11.1119 -11.0774 -11.0661 -11.0641
   -11.0608 -11.0529 -11.0036 -10.9518 -10.9212 -10.8920 -10.8342 -10.8254
   -10.7460 -10.7395 -10.7350 -10.7335 -10.7268 -10.7228 -10.7215 -10.7160
   -10.6952 -10.6936 -10.6907 -10.6867 -10.6845 -10.6840 -10.6838 -10.6775
   -10.6565 -10.6479 -10.6471 -10.6421 -10.6374 -10.6355 -10.6334 -10.6301
   -10.6301 -10.6294 -10.6287 -10.6264 -10.6262 -10.6232 -10.6222 -10.6193
   -10.6186 -10.6155 -10.6138 -10.6137 -10.6101 -10.6084 -10.6064 -10.6053
   -10.6050 -10.6045 -10.6037 -10.6036 -10.6017 -10.6008 -10.5974 -10.5974
    -9.2078  -8.9989  -8.9619  -8.7893  -8.5461  -8.3777  -8.2909  -8.1597
    -8.1455  -8.0206  -7.9240  -7.8768  -7.8333  -7.7303  -7.4732  -7.3100
    -7.0505  -7.0455  -6.8387  -6.7725  -6.7584  -6.7464  -6.7082  -6.5558
    -6.5385  -6.5356  -6.5172  -6.3568  -6.3128  -6.2613  -6.2444  -6.2319
     1.3519   1.3881   1.7645   1.7692   2.0538   2.1610   2.2651   2.4126
     2.5061   2.5469   2.8011   2.9290   3.3899   3.7766   3.7828   4.1042
     4.3533   4.3706   4.3851   4.5276   4.5480   4.6806   4.7160   4.7828
     4.8302   4.8410   4.9449   5.0648   5.1376   5.1401   5.1799   5.3141
     5.3453   5.5085   5.6502   5.7021   5.7096   5.7646   5.8480   5.9063
     5.9208   6.0160   6.0946   6.1198   6.2135   6.2148   6.2955   6.4805
     6.4858   6.6124   6.8019   6.8400   7.0162   7.0730   7.0894   7.1203
     7.1767   7.3012   7.3509   7.4135   7.4325   7.4339   7.4398   7.6104
     7.6137   7.6720   7.6922   7.7563   7.8146   7.9716   7.9752   7.9776
     8.0222   8.0378   8.1594   8.1787   8.2085   8.2695   8.3205   8.3636
     8.3770   8.3878   8.4040   8.4264   8.4467   8.4624   8.4766   8.4784
     8.5513   8.5811   8.6292   8.6292   8.6370   8.6371   8.7717   8.8778
    12.6720  13.2206  13.5669  13.9352  13.9404  13.9789  14.1747  14.3330
    14.3539  14.4561  14.5210  14.7936  15.2252  15.5494  15.6001  15.8349
    17.0211  17.0834  17.2229  17.2521  17.4656  17.4912  17.5191  17.5304
    17.7291  17.7507  17.8288  17.9087  17.9222  17.9520  17.9866  18.0439
    18.0465  18.1605  18.1897  18.3222  18.5595  18.5827  18.7966  18.8233
    19.0781  19.1801  19.3479  19.4575  19.4881  19.7010  19.9922  20.3503

          k = 0.3750 0.3750 0.1238 ( 30790 PWs)   bands (ev):

   -11.7345 -11.7345 -11.7222 -11.7177 -11.7140 -11.6563 -11.6563 -11.6249
   -11.5985 -11.5985 -11.5656 -11.5606 -11.3980 -11.3108 -11.3108 -11.2033
   -11.1093 -11.1075 -11.0564 -11.0563 -10.8519 -10.8403 -10.8403 -10.8393
   -10.8356 -10.8336 -10.8226 -10.8226 -10.8185 -10.8176 -10.8081 -10.8081
   -10.8051 -10.7991 -10.7979 -10.7978 -10.7743 -10.7666 -10.7666 -10.7556
   -10.6778 -10.6778 -10.6770 -10.6765 -10.6739 -10.6736 -10.6735 -10.6732
   -10.6631 -10.6521 -10.6521 -10.6443 -10.6183 -10.6183 -10.6157 -10.6157
   -10.6147 -10.6134 -10.6134 -10.6102 -10.6101 -10.6098 -10.6098 -10.6052
   -10.5731 -10.5727 -10.5727 -10.5715 -10.5711 -10.5678 -10.5678 -10.5672
   -10.5654 -10.5653 -10.5646 -10.5641 -10.5620 -10.5605 -10.5599 -10.5599
    -9.3336  -9.1211  -9.1211  -8.8850  -8.2284  -8.2069  -8.2069  -8.1060
    -8.0733  -8.0733  -7.8163  -7.8163  -7.7810  -7.7765  -7.7504  -7.7465
    -7.7395  -7.7344  -7.4397  -7.4396  -6.6609  -6.4003  -6.4003  -6.3422
    -6.3109  -6.2846  -6.2846  -6.1932  -6.1196  -6.1006  -6.0795  -6.0795
     1.4377   1.5769   1.6310   1.6310   1.6730   1.8939   2.0004   2.0004
     2.2637   2.2637   2.4221   2.4313   3.9210   3.9443   3.9443   3.9526
     3.9526   3.9889   4.4398   4.4467   4.4580   4.5011   4.5116   4.5116
     4.6823   4.6823   4.6951   4.7448   5.2196   5.2846   5.3443   5.3443
     5.5519   5.8016   5.8016   5.8053   5.8053   5.8982   6.0891   6.1350
     6.3383   6.3383   6.5152   6.5404   6.5923   6.6246   6.6248   6.7570
     6.7697   6.7697   6.9125   7.0838   7.0838   7.0962   7.0962   7.5041
     7.5484   7.5844   7.5844   7.5983   7.7278   7.8605   7.8607   7.8607
     7.8945   7.8947   7.9081   7.9081   7.9656   7.9656   8.0241   8.0262
     8.0439   8.0439   8.0465   8.0607   8.0630   8.0819   8.1067   8.1067
     8.1658   8.2219   8.2219   8.2283   8.2428   8.3348   8.3617   8.3617
     8.4307   8.4845   8.4845   8.4890   8.6391   8.7755   8.7755   8.9592
    11.7443  12.4711  12.4711  12.9684  14.2148  14.3820  14.3820  14.3870
    14.6801  14.7093  14.7093  14.7256  14.8287  15.2549  15.2549  15.5018
    15.8288  15.8939  16.0496  16.0497  16.1499  16.1499  16.2692  16.3424
    17.0523  17.0523  17.1736  17.2769  18.5251  18.5251  18.5450  19.1104
    19.2764  19.4906  19.5024  19.5513  19.5513  19.5542  19.5750  19.5750
    19.9349  19.9818  19.9818  20.0086  20.0159  20.2985  20.3700  20.3703

          k = 0.3750 0.3750 0.3715 ( 30825 PWs)   bands (ev):

   -11.6691 -11.6691 -11.6643 -11.6514 -11.6502 -11.6021 -11.6021 -11.5677
   -11.5249 -11.5249 -11.4854 -11.4805 -11.3543 -11.2784 -11.2783 -11.1876
   -11.1713 -11.1674 -11.1171 -11.1171 -10.9453 -10.9436 -10.9436 -10.9433
   -10.9398 -10.9370 -10.9370 -10.9349 -10.8791 -10.8170 -10.8170 -10.8143
   -10.7866 -10.7795 -10.7795 -10.7794 -10.7468 -10.7354 -10.7354 -10.7264
   -10.6733 -10.6733 -10.6711 -10.6698 -10.6630 -10.6630 -10.6618 -10.6614
   -10.6592 -10.6488 -10.6487 -10.6413 -10.6266 -10.6226 -10.6226 -10.6191
   -10.6174 -10.6168 -10.6131 -10.6130 -10.6130 -10.6118 -10.6118 -10.6092
   -10.6076 -10.6076 -10.6055 -10.6052 -10.6021 -10.5999 -10.5998 -10.5995
   -10.5851 -10.5849 -10.5849 -10.5839 -10.5814 -10.5814 -10.5814 -10.5814
    -9.2490  -9.0250  -9.0250  -8.7805  -8.5661  -8.4378  -8.4378  -8.2623
    -7.9347  -7.9346  -7.7288  -7.6834  -7.6834  -7.6676  -7.6216  -7.5678
    -7.5236  -7.4920  -7.2950  -7.2950  -6.6070  -6.5254  -6.4920  -6.4461
    -6.4461  -6.3783  -6.3783  -6.2148  -6.2081  -6.1704  -6.1488  -6.1488
     1.5703   1.5735   1.6148   1.6926   1.6927   1.9843   1.9843   2.1344
     2.3684   2.5363   2.5363   2.8566   3.5829   3.7584   3.7584   4.0136
     4.0197   4.0197   4.1957   4.4960   4.7585   4.7602   4.7928   4.7928
     4.9626   4.9626   5.0271   5.0426   5.1790   5.1790   5.3570   5.4184
     5.4483   5.5342   5.5342   5.6559   5.7668   5.7668   5.7699   5.9765
     6.0625   6.0625   6.1501   6.3269   6.3812   6.4665   6.5342   6.5939
     6.6221   6.6221   6.8592   6.9754   6.9754   7.0566   7.0566   7.2268
     7.4710   7.4786   7.4835   7.6164   7.6164   7.6810   7.6869   7.6869
     7.7328   7.7519   7.7519   7.8376   7.9028   7.9028   7.9208   7.9903
     7.9903   8.0471   8.0523   8.1168   8.1816   8.1969   8.1969   8.2527
     8.2592   8.3469   8.3590   8.3590   8.3680   8.4458   8.4541   8.4541
     8.4792   8.4889   8.4889   8.5064   8.7329   8.8210   8.8210   8.9600
    12.1959  12.8139  12.8139  13.2306  14.2648  14.3661  14.4270  14.4270
    14.4428  14.6627  14.6627  14.7973  14.9969  15.2912  15.2912  15.6283
    16.3196  16.4009  16.5351  16.5351  16.6215  16.6215  16.7305  16.7789
    17.2867  17.2867  17.3439  17.4576  18.4609  18.4609  18.4931  18.7890
    18.8051  18.8566  18.9415  18.9415  19.0086  19.0470  19.0470  19.1000
    19.7851  19.7851  19.8628  19.9719  20.0672  20.1711  20.1716  20.1716

          k = 0.3750 0.3750 0.6191 ( 30821 PWs)   bands (ev):

   -11.5768 -11.5667 -11.5667 -11.5621 -11.5435 -11.5340 -11.5340 -11.4958
   -11.4029 -11.4028 -11.3355 -11.3310 -11.3247 -11.3078 -11.3078 -11.2751
   -11.2633 -11.2363 -11.1863 -11.1863 -11.1404 -11.1369 -11.1145 -11.1145
   -10.9979 -10.9473 -10.9473 -10.9419 -10.9083 -10.8651 -10.8651 -10.8245
   -10.7468 -10.7422 -10.7422 -10.7406 -10.7181 -10.7135 -10.7134 -10.7127
   -10.6977 -10.6961 -10.6961 -10.6915 -10.6776 -10.6775 -10.6774 -10.6736
   -10.6520 -10.6474 -10.6435 -10.6435 -10.6432 -10.6432 -10.6429 -10.6372
   -10.6289 -10.6261 -10.6261 -10.6242 -10.6235 -10.6231 -10.6206 -10.6206
   -10.6175 -10.6151 -10.6151 -10.6109 -10.6095 -10.6062 -10.6060 -10.6060
   -10.6049 -10.6049 -10.6042 -10.6031 -10.6029 -10.6004 -10.6004 -10.5994
    -9.0943  -8.8684  -8.8684  -8.8682  -8.6710  -8.6710  -8.6222  -8.4454
    -7.7573  -7.7573  -7.6652  -7.6539  -7.6539  -7.6343  -7.4589  -7.3808
    -7.2223  -7.1815  -7.0341  -7.0341  -6.8444  -6.8074  -6.7221  -6.7221
    -6.4990  -6.3519  -6.3290  -6.3290  -6.2472  -6.2472  -6.2440  -6.2388
     1.5388   1.5529   1.8120   1.8120   1.9072   1.9259   1.9259   2.1953
     2.5647   2.9655   2.9655   3.0830   3.4037   3.4037   3.4205   3.8550
     4.2362   4.2501   4.2501   4.5804   4.7687   4.7687   4.8713   4.8857
     5.1223   5.1223   5.1703   5.1703   5.2903   5.2961   5.4777   5.4777
     5.5172   5.5639   5.6140   5.6452   5.7461   5.8381   5.8381   5.8434
     5.9647   6.0156   6.0407   6.0407   6.0421   6.1516   6.2468   6.2468
     6.2514   6.5013   6.5209   6.6375   6.6794   6.6794   6.7942   6.7942
     7.2118   7.2725   7.4934   7.4934   7.5531   7.5531   7.6249   7.7015
     7.7140   7.7953   7.7958   7.8662   7.8662   7.9122   7.9122   8.0155
     8.0804   8.0804   8.1053   8.1212   8.2442   8.2442   8.2801   8.3385
     8.3777   8.3777   8.3795   8.4006   8.4337   8.4453   8.4453   8.4675
     8.6500   8.6500   8.6541   8.6548   8.7487   8.7850   8.7850   8.8632
    12.9142  13.3635  13.3635  13.6309  13.6883  13.9465  13.9465  14.0087
    14.7157  14.8375  15.0283  15.0283  15.2551  15.2551  15.3992  15.6320
    17.1210  17.2223  17.3337  17.3338  17.3626  17.3627  17.4703  17.4716
    17.6337  17.6804  17.6804  17.7768  18.0644  18.0916  18.0916  18.1139
    18.1397  18.1600  18.2396  18.2396  18.2556  18.2556  18.3796  18.4003
    19.6924  19.6924  19.8460  19.8839  19.8839  20.0333  20.1342  20.1974

          k =-0.1250 0.1250-0.1238 ( 30761 PWs)   bands (ev):

   -11.7990 -11.7345 -11.7345 -11.7157 -11.7157 -11.6038 -11.5929 -11.5690
   -11.5653 -11.5567 -11.5478 -11.5478 -11.5381 -11.4026 -11.4026 -11.1339
   -11.1115 -11.0888 -11.0600 -10.9985 -10.8581 -10.8581 -10.8407 -10.8407
   -10.8377 -10.8376 -10.8248 -10.8221 -10.8192 -10.8169 -10.8149 -10.8148
   -10.8126 -10.7944 -10.7904 -10.7832 -10.7832 -10.7737 -10.7737 -10.7247
   -10.6764 -10.6751 -10.6750 -10.6720 -10.6716 -10.6715 -10.6715 -10.6700
   -10.6691 -10.6412 -10.6412 -10.6307 -10.6277 -10.6253 -10.6253 -10.6223
   -10.6125 -10.6124 -10.6124 -10.6119 -10.6116 -10.6102 -10.6102 -10.5958
   -10.5805 -10.5727 -10.5726 -10.5714 -10.5713 -10.5683 -10.5675 -10.5660
   -10.5656 -10.5651 -10.5649 -10.5640 -10.5623 -10.5623 -10.5586 -10.5586
    -9.5421  -8.9587  -8.9587  -8.6098  -8.6098  -8.2061  -8.1937  -8.1937
    -8.1679  -8.0826  -8.0826  -7.8141  -7.7960  -7.7817  -7.7163  -7.7030
    -7.7015  -7.6507  -7.4001  -6.8842  -6.8842  -6.5412  -6.5412  -6.3640
    -6.3174  -6.2886  -6.2492  -6.1138  -6.1138  -6.0813  -6.0813  -6.0328
     1.1493   1.2726   1.3280   1.7262   2.1118   2.1118   2.3006   2.3012
     2.3012   2.3544   2.3544   3.0721   3.0721   3.4278   3.6763   3.7174
     3.7174   3.9042   3.9042   4.2820   4.2821   4.9031   4.9882   4.9989
     4.9989   5.0583   5.0908   5.1049   5.1049   5.2049   5.3230   5.3517
     5.5274   5.6069   5.6640   5.6640   5.9500   6.0310   6.0310   6.1889
     6.2128   6.2655   6.2655   6.2898   6.5866   6.6567   6.7446   6.7446
     6.7603   6.9500   6.9906   7.0989   7.0989   7.1658   7.2457   7.3534
     7.4184   7.4448   7.4448   7.4594   7.5153   7.5153   7.5912   7.5912
     7.8530   7.9143   7.9382   7.9612   7.9959   7.9968   7.9968   8.0236
     8.0258   8.0258   8.0483   8.1265   8.1265   8.2156   8.2156   8.2724
     8.2798   8.3547   8.3743   8.4043   8.4080   8.4080   8.4168   8.4340
     8.5161   8.5161   8.5214   8.5873   8.5873   8.6719   8.6719   9.2073
    10.5914  13.0648  13.0648  13.7328  13.8713  13.8713  13.8846  13.9772
    14.0070  14.9323  15.0829  15.2323  15.2323  15.4252  15.4253  15.4652
    15.4997  15.5006  16.1196  16.1196  16.1928  16.1928  16.5479  16.5592
    17.0848  17.0848  17.3612  17.3612  17.8443  18.0148  18.2723  18.9378
    19.2153  19.5557  19.6819  19.8051  19.8051  19.8672  19.8920  19.8941
    19.8941  19.9289  19.9608  19.9608  19.9840  19.9840  20.0069  20.0309

          k =-0.1250 0.1250-0.3715 ( 30808 PWs)   bands (ev):

   -11.7354 -11.6692 -11.6691 -11.6475 -11.6475 -11.5303 -11.5246 -11.5076
   -11.5076 -11.5021 -11.4887 -11.4770 -11.4762 -11.3739 -11.3739 -11.2704
   -11.1636 -11.1046 -11.0240 -10.9466 -10.9458 -10.9417 -10.9403 -10.9403
   -10.9383 -10.9383 -10.9380 -10.9124 -10.9124 -10.9058 -10.8316 -10.8316
   -10.7933 -10.7740 -10.7695 -10.7601 -10.7601 -10.7442 -10.7442 -10.7267
   -10.6744 -10.6744 -10.6710 -10.6685 -10.6685 -10.6607 -10.6590 -10.6589
   -10.6570 -10.6388 -10.6388 -10.6347 -10.6285 -10.6265 -10.6256 -10.6240
   -10.6240 -10.6194 -10.6194 -10.6150 -10.6136 -10.6134 -10.6134 -10.6128
   -10.6105 -10.6041 -10.6015 -10.6015 -10.5999 -10.5984 -10.5984 -10.5960
   -10.5844 -10.5844 -10.5829 -10.5829 -10.5828 -10.5821 -10.5820 -10.5819
    -9.4684  -8.8512  -8.8512  -8.6484  -8.4819  -8.4819  -8.3400  -8.3400
    -8.0992  -8.0682  -8.0682  -7.8203  -7.7823  -7.7208  -7.5992  -7.5079
    -7.4923  -7.2900  -7.1846  -6.7810  -6.7810  -6.5489  -6.4878  -6.4878
    -6.4807  -6.4682  -6.3935  -6.2123  -6.2123  -6.1521  -6.1521  -6.1233
     1.1376   1.3691   1.5424   1.5998   2.1668   2.1668   2.3656   2.3656
     2.5391   2.5391   3.0606   3.0877   3.0877   3.1303   3.2903   3.7985
     3.7985   3.9932   3.9932   4.5840   4.5855   4.8067   4.9507   5.0085
     5.0085   5.2407   5.2407   5.2539   5.2539   5.2808   5.3165   5.3165
     5.3343   5.3796   5.4173   5.4304   5.4729   5.7881   5.8341   6.1200
     6.2742   6.2907   6.3449   6.4397   6.4538   6.5793   6.5793   6.6244
     6.7139   6.7901   6.8149   6.8962   6.8962   7.0994   7.1366   7.1366
     7.2092   7.2912   7.4229   7.4800   7.5348   7.5348   7.5550   7.5550
     7.6351   7.6351   7.8028   7.8028   7.9068   7.9068   8.0327   8.0327
     8.1011   8.1858   8.1932   8.2112   8.2518   8.2518   8.2522   8.2793
     8.3250   8.3250   8.3274   8.3853   8.4222   8.4656   8.4737   8.4752
     8.5090   8.5090   8.5370   8.5380   8.5380   8.6452   8.6452   9.1101
    11.3540  13.3984  13.3984  13.8919  14.0387  14.0517  14.1088  14.1785
    14.1785  14.2509  14.9392  14.9392  15.3361  15.3361  15.3910  15.8257
    16.0454  16.0656  16.6191  16.6191  16.6825  16.6825  16.9436  16.9488
    17.3553  17.3553  17.5739  17.5739  17.9132  17.9506  18.0945  18.5406
    18.7882  18.8815  19.2262  19.2262  19.2912  19.2912  19.5236  19.5237
    19.5449  19.5449  19.5562  19.6344  19.7725  19.7899  19.9198  20.0608

          k =-0.1250 0.1250-0.6191 ( 30816 PWs)   bands (ev):

   -11.6214 -11.5628 -11.5628 -11.5274 -11.5274 -11.4958 -11.4881 -11.4880
   -11.4119 -11.4051 -11.4051 -11.4035 -11.3762 -11.3385 -11.3279 -11.3132
   -11.2611 -11.1725 -11.1499 -11.1427 -11.1344 -11.1173 -11.0251 -11.0251
   -10.9940 -10.9940 -10.9692 -10.9692 -10.8949 -10.8949 -10.8846 -10.8487
   -10.7490 -10.7343 -10.7341 -10.7311 -10.7305 -10.7305 -10.7211 -10.7211
   -10.6939 -10.6939 -10.6911 -10.6906 -10.6906 -10.6827 -10.6785 -10.6754
   -10.6616 -10.6498 -10.6371 -10.6354 -10.6354 -10.6341 -10.6341 -10.6334
   -10.6330 -10.6317 -10.6276 -10.6276 -10.6251 -10.6235 -10.6235 -10.6222
   -10.6190 -10.6169 -10.6124 -10.6124 -10.6081 -10.6074 -10.6074 -10.6070
   -10.6070 -10.6063 -10.6018 -10.6018 -10.5990 -10.5990 -10.5990 -10.5964
    -9.3079  -9.0377  -8.6878  -8.6878  -8.5109  -8.5109  -8.3006  -8.3006
    -8.1458  -8.1458  -7.9755  -7.8841  -7.7598  -7.7366  -7.2510  -7.2021
    -7.1527  -7.0591  -6.9655  -6.8704  -6.7813  -6.7568  -6.5999  -6.5999
    -6.4944  -6.3902  -6.3902  -6.3894  -6.3894  -6.3027  -6.2667  -6.2667
     1.1352   1.1903   2.0237   2.0907   2.2786   2.2786   2.3544   2.3544
     2.6066   2.7006   2.8578   2.8578   3.0546   3.0546   3.9861   4.0177
     4.0177   4.1465   4.1465   4.4385   4.4385   4.5452   4.5452   4.7605
     4.7940   5.0560   5.1178   5.1179   5.4409   5.5654   5.5987   5.6198
     5.6719   5.6942   5.7123   5.7123   5.7695   5.7695   5.7907   5.8733
     5.9579   6.0302   6.1226   6.1333   6.2686   6.2686   6.3774   6.3794
     6.3794   6.5006   6.6232   6.6567   6.8062   6.8123   6.8473   6.8703
     7.0895   7.0952   7.3840   7.3840   7.5805   7.5805   7.6361   7.6361
     7.6881   7.6881   7.7767   7.7767   7.8906   7.8906   7.9606   7.9606
     8.1741   8.1741   8.1867   8.2441   8.3343   8.3343   8.3374   8.3566
     8.3631   8.3666   8.3992   8.4132   8.4387   8.4387   8.4603   8.4838
     8.5213   8.5213   8.5326   8.5354   8.5842   8.5842   8.6135   8.9083
    12.3808  13.3881  13.9250  13.9250  14.0684  14.1201  14.1964  14.2138
    14.4787  14.4787  14.6392  14.6392  15.0665  15.0665  15.7660  15.9473
    16.9424  16.9756  17.4222  17.4222  17.4363  17.4363  17.5408  17.5414
    17.7721  17.7721  17.8008  17.8519  17.8519  17.9442  17.9604  17.9799
    18.0123  18.0330  18.4695  18.4695  18.5328  18.5328  18.9286  18.9286
    19.0103  19.0103  19.2039  19.2736  19.5846  19.7066  19.9734  20.1263

          k =-0.1250 0.3750-0.1238 ( 30782 PWs)   bands (ev):

   -11.7550 -11.7171 -11.7148 -11.6693 -11.6680 -11.6659 -11.6628 -11.6613
   -11.6025 -11.5943 -11.5699 -11.5592 -11.4912 -11.4385 -11.2566 -11.1438
   -11.0646 -11.0590 -10.9537 -10.9513 -10.9506 -10.9134 -10.8542 -10.8392
   -10.8363 -10.8356 -10.8327 -10.8316 -10.8299 -10.8288 -10.8232 -10.8223
   -10.8039 -10.7935 -10.7930 -10.7878 -10.7838 -10.7773 -10.7631 -10.7461
   -10.6770 -10.6765 -10.6749 -10.6740 -10.6740 -10.6735 -10.6726 -10.6718
   -10.6696 -10.6567 -10.6386 -10.6348 -10.6260 -10.6252 -10.6198 -10.6160
   -10.6129 -10.6126 -10.6112 -10.6110 -10.6109 -10.6104 -10.6099 -10.6011
   -10.5759 -10.5715 -10.5712 -10.5688 -10.5687 -10.5684 -10.5681 -10.5680
   -10.5667 -10.5659 -10.5652 -10.5646 -10.5637 -10.5625 -10.5611 -10.5590
    -9.4423  -9.2442  -8.8191  -8.5578  -8.4553  -8.2383  -8.2277  -8.2027
    -8.1732  -8.1066  -7.9554  -7.9450  -7.9189  -7.9070  -7.7968  -7.7546
    -7.5313  -7.4069  -7.2365  -7.0762  -7.0147  -6.7098  -6.3081  -6.2669
    -6.2604  -6.2108  -6.2012  -6.1862  -6.1712  -6.1182  -6.1037  -6.0992
     1.3567   1.4141   1.5742   1.7271   1.7666   1.7890   1.9201   1.9619
     2.3394   2.3727   2.5859   2.9866   3.2667   3.5501   3.8507   3.8868
     4.1235   4.3033   4.3055   4.3442   4.3514   4.3731   4.5845   4.7365
     4.8732   4.9529   4.9674   5.2014   5.2206   5.2583   5.3013   5.3810
     5.4703   5.4707   5.5302   5.6262   5.8147   5.8587   5.9246   5.9804
     6.1267   6.1702   6.3855   6.4217   6.4275   6.6059   6.7051   6.7787
     6.9606   7.1005   7.1191   7.2891   7.3245   7.3381   7.3841   7.4090
     7.4691   7.5230   7.5787   7.5929   7.6013   7.6436   7.8031   7.8501
     7.8689   7.8838   7.9238   7.9380   7.9521   7.9564   7.9587   7.9862
     8.0077   8.0177   8.0196   8.0226   8.1296   8.1325   8.1352   8.1507
     8.1630   8.2043   8.2464   8.2909   8.3422   8.3510   8.3766   8.4083
     8.4304   8.5045   8.5194   8.5277   8.5492   8.6110   8.8489   9.0679
    11.2538  12.1498  13.2336  13.4901  13.9001  13.9253  14.2380  14.3430
    14.4776  14.7173  14.8624  14.9128  14.9734  15.0678  15.4989  15.5176
    15.6230  15.7378  15.8646  16.0188  16.2534  16.3053  16.4295  16.4611
    17.2396  17.3321  17.6325  17.7319  17.8535  17.9151  18.0818  18.5411
    19.4587  19.6225  19.7175  19.7193  19.7368  19.7495  19.7524  19.8062
    19.8408  19.9534  19.9632  19.9691  19.9973  20.0375  20.1675  20.1824

          k =-0.1250 0.3750-0.3715 ( 30802 PWs)   bands (ev):

   -11.6956 -11.6523 -11.6506 -11.6180 -11.5999 -11.5997 -11.5977 -11.5922
   -11.5288 -11.5198 -11.5123 -11.5113 -11.4380 -11.3989 -11.2325 -11.1695
   -11.1064 -11.1060 -11.0354 -10.9969 -10.9890 -10.9452 -10.9430 -10.9425
   -10.9418 -10.9415 -10.9400 -10.9361 -10.9350 -10.8847 -10.8524 -10.8132
   -10.7872 -10.7755 -10.7726 -10.7666 -10.7607 -10.7506 -10.7314 -10.7255
   -10.6735 -10.6717 -10.6670 -10.6667 -10.6664 -10.6649 -10.6625 -10.6623
   -10.6594 -10.6531 -10.6363 -10.6325 -10.6308 -10.6254 -10.6242 -10.6238
   -10.6182 -10.6181 -10.6164 -10.6131 -10.6131 -10.6111 -10.6096 -10.6093
   -10.6076 -10.6055 -10.6052 -10.6046 -10.6012 -10.6008 -10.5990 -10.5982
   -10.5844 -10.5843 -10.5837 -10.5831 -10.5826 -10.5822 -10.5812 -10.5808
    -9.3636  -9.1539  -8.7090  -8.6173  -8.5241  -8.4461  -8.3308  -8.2238
    -8.0871  -8.0590  -8.0259  -7.9530  -7.7955  -7.7431  -7.7292  -7.4189
    -7.3488  -7.2882  -7.0894  -6.9684  -6.9279  -6.6431  -6.4706  -6.4231
    -6.3334  -6.3245  -6.3181  -6.2670  -6.2603  -6.2076  -6.1668  -6.1518
     1.3522   1.5190   1.6477   1.7709   1.7999   1.8208   1.8908   2.1780
     2.5457   2.8201   2.8399   2.9832   3.1758   3.2799   3.8647   3.9208
     4.2258   4.3169   4.4539   4.4989   4.5502   4.6251   4.6502   4.9018
     5.0175   5.0444   5.0620   5.1416   5.1557   5.2127   5.2322   5.2931
     5.3520   5.3523   5.3594   5.4231   5.5608   5.5776   5.8170   5.8188
     5.9035   6.2337   6.2882   6.4170   6.4588   6.5757   6.7095   6.7494
     6.7724   6.7745   6.9932   7.1082   7.1580   7.2057   7.2644   7.2738
     7.3306   7.3499   7.3862   7.4882   7.5209   7.5626   7.6316   7.6601
     7.7013   7.7930   7.7969   7.8224   7.8445   7.8931   7.9322   7.9862
     8.0292   8.1068   8.1155   8.1326   8.1472   8.1784   8.1794   8.2214
     8.2813   8.3183   8.3358   8.3495   8.3972   8.4549   8.4672   8.4740
     8.4748   8.5187   8.5242   8.5278   8.5932   8.6494   8.8409   9.0199
    11.8183  12.5620  13.5123  13.6981  14.1208  14.1598  14.2380  14.3577
    14.4145  14.5869  14.5981  14.7903  14.9013  15.1872  15.6353  15.7792
    16.1572  16.2494  16.3775  16.5065  16.7249  16.7681  16.8607  16.8801
    17.4155  17.5206  17.6726  17.7642  17.9521  18.0116  18.1437  18.4962
    18.7506  18.9498  19.0146  19.0894  19.2031  19.2880  19.3207  19.3503
    19.5521  19.6356  19.6490  19.6902  19.7486  19.8012  20.0657  20.3366

          k =-0.1250 0.3750-0.6191 ( 30815 PWs)   bands (ev):

   -11.5984 -11.5658 -11.5534 -11.5410 -11.5387 -11.4902 -11.4843 -11.4718
   -11.4638 -11.4413 -11.4097 -11.3938 -11.3852 -11.3778 -11.3106 -11.2283
   -11.2159 -11.1747 -11.1165 -11.1164 -11.1119 -11.0774 -11.0661 -11.0641
   -11.0608 -11.0529 -11.0036 -10.9518 -10.9212 -10.8920 -10.8342 -10.8254
   -10.7460 -10.7395 -10.7350 -10.7335 -10.7268 -10.7228 -10.7215 -10.7160
   -10.6952 -10.6936 -10.6907 -10.6867 -10.6845 -10.6840 -10.6838 -10.6775
   -10.6565 -10.6479 -10.6471 -10.6421 -10.6374 -10.6355 -10.6334 -10.6301
   -10.6301 -10.6294 -10.6287 -10.6264 -10.6262 -10.6232 -10.6222 -10.6193
   -10.6186 -10.6155 -10.6138 -10.6137 -10.6101 -10.6084 -10.6064 -10.6053
   -10.6050 -10.6045 -10.6037 -10.6036 -10.6017 -10.6008 -10.5974 -10.5974
    -9.2078  -8.9989  -8.9619  -8.7893  -8.5461  -8.3777  -8.2909  -8.1597
    -8.1455  -8.0206  -7.9240  -7.8768  -7.8333  -7.7303  -7.4732  -7.3100
    -7.0505  -7.0455  -6.8387  -6.7725  -6.7584  -6.7464  -6.7082  -6.5558
    -6.5385  -6.5356  -6.5172  -6.3568  -6.3128  -6.2613  -6.2444  -6.2319
     1.3519   1.3881   1.7645   1.7692   2.0538   2.1610   2.2651   2.4126
     2.5061   2.5469   2.8011   2.9290   3.3899   3.7766   3.7828   4.1042
     4.3533   4.3706   4.3851   4.5276   4.5480   4.6806   4.7160   4.7828
     4.8302   4.8410   4.9449   5.0648   5.1376   5.1401   5.1799   5.3141
     5.3453   5.5085   5.6502   5.7021   5.7096   5.7646   5.8480   5.9063
     5.9208   6.0160   6.0946   6.1198   6.2135   6.2148   6.2955   6.4805
     6.4858   6.6124   6.8019   6.8400   7.0162   7.0730   7.0894   7.1203
     7.1767   7.3012   7.3509   7.4135   7.4325   7.4339   7.4398   7.6104
     7.6137   7.6720   7.6922   7.7563   7.8146   7.9716   7.9752   7.9776
     8.0222   8.0378   8.1594   8.1787   8.2085   8.2695   8.3205   8.3636
     8.3770   8.3878   8.4040   8.4264   8.4467   8.4624   8.4766   8.4784
     8.5513   8.5811   8.6292   8.6292   8.6370   8.6371   8.7717   8.8778
    12.6720  13.2206  13.5669  13.9352  13.9404  13.9789  14.1747  14.3330
    14.3539  14.4561  14.5210  14.7936  15.2252  15.5494  15.6001  15.8349
    17.0211  17.0834  17.2229  17.2521  17.4656  17.4912  17.5191  17.5304
    17.7291  17.7507  17.8288  17.9087  17.9222  17.9520  17.9866  18.0439
    18.0465  18.1605  18.1897  18.3222  18.5595  18.5827  18.7966  18.8233
    19.0781  19.1801  19.3479  19.4575  19.4881  19.7010  19.9921  20.3503

          k =-0.3750 0.3750-0.1238 ( 30790 PWs)   bands (ev):

   -11.7345 -11.7345 -11.7222 -11.7177 -11.7140 -11.6563 -11.6563 -11.6249
   -11.5985 -11.5985 -11.5656 -11.5606 -11.3980 -11.3108 -11.3108 -11.2033
   -11.1093 -11.1075 -11.0564 -11.0563 -10.8519 -10.8403 -10.8403 -10.8393
   -10.8356 -10.8336 -10.8226 -10.8226 -10.8185 -10.8176 -10.8081 -10.8081
   -10.8051 -10.7991 -10.7979 -10.7979 -10.7743 -10.7666 -10.7666 -10.7556
   -10.6778 -10.6778 -10.6770 -10.6765 -10.6739 -10.6736 -10.6735 -10.6732
   -10.6631 -10.6521 -10.6521 -10.6443 -10.6183 -10.6183 -10.6157 -10.6157
   -10.6147 -10.6134 -10.6134 -10.6102 -10.6101 -10.6098 -10.6098 -10.6052
   -10.5731 -10.5727 -10.5727 -10.5715 -10.5711 -10.5678 -10.5678 -10.5672
   -10.5654 -10.5654 -10.5646 -10.5641 -10.5620 -10.5605 -10.5599 -10.5599
    -9.3336  -9.1211  -9.1211  -8.8850  -8.2284  -8.2069  -8.2069  -8.1060
    -8.0733  -8.0733  -7.8163  -7.8163  -7.7810  -7.7765  -7.7504  -7.7465
    -7.7395  -7.7344  -7.4396  -7.4396  -6.6609  -6.4003  -6.4003  -6.3422
    -6.3109  -6.2846  -6.2846  -6.1932  -6.1196  -6.1006  -6.0795  -6.0795
     1.4377   1.5769   1.6310   1.6310   1.6730   1.8939   2.0004   2.0004
     2.2637   2.2637   2.4221   2.4313   3.9210   3.9443   3.9443   3.9526
     3.9526   3.9889   4.4398   4.4467   4.4580   4.5011   4.5116   4.5116
     4.6823   4.6823   4.6951   4.7448   5.2196   5.2846   5.3443   5.3443
     5.5519   5.8016   5.8016   5.8053   5.8053   5.8982   6.0891   6.1350
     6.3383   6.3383   6.5152   6.5404   6.5923   6.6246   6.6248   6.7570
     6.7697   6.7697   6.9125   7.0838   7.0838   7.0962   7.0962   7.5041
     7.5484   7.5844   7.5844   7.5983   7.7278   7.8605   7.8607   7.8607
     7.8945   7.8947   7.9081   7.9081   7.9656   7.9656   8.0241   8.0262
     8.0439   8.0439   8.0465   8.0607   8.0630   8.0819   8.1066   8.1066
     8.1658   8.2219   8.2219   8.2283   8.2428   8.3348   8.3617   8.3617
     8.4307   8.4845   8.4845   8.4890   8.6391   8.7755   8.7755   8.9592
    11.7443  12.4711  12.4711  12.9684  14.2148  14.3820  14.3820  14.3870
    14.6801  14.7093  14.7093  14.7256  14.8287  15.2549  15.2549  15.5018
    15.8288  15.8939  16.0496  16.0497  16.1499  16.1499  16.2692  16.3424
    17.0523  17.0523  17.1736  17.2769  18.5251  18.5251  18.5450  19.1104
    19.2764  19.4906  19.5024  19.5513  19.5513  19.5542  19.5750  19.5750
    19.9349  19.9818  19.9819  20.0086  20.0159  20.2985  20.3384  20.3702

          k =-0.3750 0.3750-0.3715 ( 30825 PWs)   bands (ev):

   -11.6691 -11.6691 -11.6643 -11.6514 -11.6502 -11.6021 -11.6021 -11.5677
   -11.5249 -11.5249 -11.4854 -11.4805 -11.3543 -11.2783 -11.2783 -11.1876
   -11.1713 -11.1674 -11.1171 -11.1171 -10.9453 -10.9436 -10.9436 -10.9433
   -10.9398 -10.9370 -10.9370 -10.9349 -10.8791 -10.8171 -10.8170 -10.8143
   -10.7866 -10.7795 -10.7795 -10.7794 -10.7468 -10.7354 -10.7354 -10.7264
   -10.6733 -10.6733 -10.6711 -10.6698 -10.6630 -10.6630 -10.6618 -10.6614
   -10.6592 -10.6488 -10.6487 -10.6413 -10.6266 -10.6226 -10.6226 -10.6191
   -10.6174 -10.6168 -10.6131 -10.6130 -10.6130 -10.6118 -10.6118 -10.6092
   -10.6076 -10.6076 -10.6055 -10.6052 -10.6021 -10.5999 -10.5998 -10.5995
   -10.5851 -10.5849 -10.5849 -10.5839 -10.5814 -10.5814 -10.5814 -10.5814
    -9.2490  -9.0250  -9.0250  -8.7805  -8.5661  -8.4378  -8.4378  -8.2623
    -7.9347  -7.9346  -7.7289  -7.6834  -7.6834  -7.6676  -7.6216  -7.5678
    -7.5236  -7.4920  -7.2950  -7.2950  -6.6070  -6.5254  -6.4920  -6.4461
    -6.4461  -6.3783  -6.3783  -6.2148  -6.2081  -6.1704  -6.1488  -6.1488
     1.5703   1.5735   1.6148   1.6927   1.6927   1.9843   1.9843   2.1344
     2.3684   2.5363   2.5363   2.8566   3.5829   3.7584   3.7584   4.0135
     4.0197   4.0197   4.1957   4.4960   4.7585   4.7602   4.7928   4.7928
     4.9626   4.9626   5.0271   5.0426   5.1790   5.1790   5.3570   5.4184
     5.4483   5.5342   5.5342   5.6559   5.7668   5.7668   5.7699   5.9765
     6.0625   6.0625   6.1501   6.3269   6.3813   6.4665   6.5342   6.5939
     6.6221   6.6221   6.8592   6.9754   6.9754   7.0566   7.0566   7.2268
     7.4710   7.4786   7.4835   7.6164   7.6164   7.6810   7.6869   7.6869
     7.7328   7.7519   7.7519   7.8376   7.9028   7.9028   7.9208   7.9903
     7.9903   8.0471   8.0523   8.1168   8.1816   8.1969   8.1969   8.2527
     8.2592   8.3469   8.3590   8.3590   8.3680   8.4458   8.4541   8.4541
     8.4792   8.4889   8.4889   8.5064   8.7329   8.8210   8.8210   8.9600
    12.1959  12.8139  12.8139  13.2306  14.2648  14.3661  14.4270  14.4270
    14.4428  14.6627  14.6627  14.7973  14.9969  15.2912  15.2912  15.6283
    16.3196  16.4009  16.5351  16.5351  16.6215  16.6215  16.7305  16.7789
    17.2867  17.2867  17.3439  17.4576  18.4609  18.4609  18.4931  18.7890
    18.8051  18.8566  18.9415  18.9415  19.0086  19.0470  19.0470  19.1000
    19.7851  19.7851  19.8628  19.9719  20.0672  20.1711  20.1716  20.1716

          k =-0.3750 0.3750-0.6191 ( 30821 PWs)   bands (ev):

   -11.5768 -11.5667 -11.5667 -11.5621 -11.5435 -11.5340 -11.5340 -11.4958
   -11.4029 -11.4028 -11.3355 -11.3310 -11.3247 -11.3078 -11.3078 -11.2751
   -11.2633 -11.2363 -11.1863 -11.1863 -11.1404 -11.1369 -11.1145 -11.1145
   -10.9979 -10.9473 -10.9473 -10.9419 -10.9083 -10.8651 -10.8651 -10.8245
   -10.7468 -10.7422 -10.7422 -10.7406 -10.7181 -10.7135 -10.7134 -10.7127
   -10.6977 -10.6961 -10.6961 -10.6915 -10.6776 -10.6775 -10.6774 -10.6736
   -10.6520 -10.6474 -10.6435 -10.6435 -10.6432 -10.6432 -10.6429 -10.6372
   -10.6289 -10.6261 -10.6261 -10.6242 -10.6235 -10.6231 -10.6206 -10.6206
   -10.6175 -10.6151 -10.6151 -10.6109 -10.6095 -10.6062 -10.6060 -10.6060
   -10.6049 -10.6049 -10.6042 -10.6031 -10.6029 -10.6004 -10.6004 -10.5994
    -9.0943  -8.8684  -8.8684  -8.8682  -8.6710  -8.6710  -8.6222  -8.4454
    -7.7573  -7.7573  -7.6652  -7.6539  -7.6539  -7.6343  -7.4589  -7.3808
    -7.2223  -7.1815  -7.0342  -7.0341  -6.8444  -6.8074  -6.7221  -6.7221
    -6.4990  -6.3519  -6.3290  -6.3290  -6.2472  -6.2472  -6.2440  -6.2388
     1.5388   1.5529   1.8120   1.8120   1.9072   1.9259   1.9259   2.1953
     2.5647   2.9655   2.9655   3.0830   3.4037   3.4037   3.4205   3.8550
     4.2362   4.2501   4.2501   4.5804   4.7687   4.7687   4.8713   4.8857
     5.1223   5.1223   5.1703   5.1703   5.2903   5.2961   5.4777   5.4777
     5.5172   5.5639   5.6140   5.6452   5.7461   5.8381   5.8381   5.8434
     5.9647   6.0156   6.0407   6.0407   6.0421   6.1516   6.2468   6.2468
     6.2514   6.5013   6.5209   6.6375   6.6794   6.6794   6.7942   6.7942
     7.2118   7.2725   7.4934   7.4934   7.5531   7.5531   7.6249   7.7015
     7.7140   7.7953   7.7958   7.8662   7.8662   7.9122   7.9122   8.0155
     8.0804   8.0804   8.1053   8.1212   8.2442   8.2442   8.2801   8.3385
     8.3777   8.3777   8.3795   8.4006   8.4337   8.4453   8.4453   8.4675
     8.6500   8.6500   8.6541   8.6548   8.7487   8.7850   8.7850   8.8632
    12.9142  13.3635  13.3635  13.6309  13.6883  13.9465  13.9465  14.0087
    14.7157  14.8375  15.0283  15.0283  15.2551  15.2551  15.3992  15.6320
    17.1210  17.2223  17.3337  17.3338  17.3626  17.3627  17.4703  17.4716
    17.6337  17.6804  17.6804  17.7768  18.0644  18.0916  18.0916  18.1139
    18.1397  18.1600  18.2396  18.2396  18.2556  18.2556  18.3796  18.4003
    19.6924  19.6924  19.8460  19.8839  19.8839  20.0333  20.1343  20.2857

     highest occupied, lowest unoccupied level (ev):     9.2073   10.5914

!    total energy              =   -3638.20333547 Ry
     Harris-Foulkes estimate   =   -3638.20333547 Ry
     estimated scf accuracy    <          3.5E-10 Ry

     The total energy is the sum of the following terms:

     one-electron contribution =   -1027.47346870 Ry
     hartree contribution      =     837.96156492 Ry
     xc contribution           =   -1002.20951955 Ry
     ewald contribution        =   -2446.48191214 Ry

     convergence has been achieved in  11 iterations

     Forces acting on atoms (Ry/au):

     atom    1 type  1   force =     0.00000000    0.00000000    0.00000000
     atom    2 type  1   force =     0.00000000    0.00000000    0.00000000
     atom    3 type  1   force =     0.00000000    0.00000000    0.00000000
     atom    4 type  1   force =     0.00000000    0.00000000    0.00000000
     atom    5 type  1   force =     0.00000000    0.00000000    0.00000000
     atom    6 type  1   force =     0.00000000    0.00000000    0.00000000
     atom    7 type  1   force =     0.00000000    0.00000000    0.00000000
     atom    8 type  1   force =     0.00000000    0.00000000    0.00000000
     atom    9 type  1   force =    -0.00000169   -0.00000169   -0.00000703
     atom   10 type  1   force =     0.00000042   -0.00000042    0.00000173
     atom   11 type  1   force =    -0.00000042    0.00000042    0.00000173
     atom   12 type  1   force =     0.00000169    0.00000169   -0.00000703
     atom   13 type  1   force =    -0.00000169   -0.00000169    0.00000703
     atom   14 type  1   force =     0.00000042   -0.00000042   -0.00000173
     atom   15 type  1   force =    -0.00000042    0.00000042   -0.00000173
     atom   16 type  1   force =     0.00000169    0.00000169    0.00000703
     atom   17 type  2   force =    -0.00427707   -0.00427707   -0.00000000
     atom   18 type  2   force =    -0.00427712   -0.00427723    0.00000000
     atom   19 type  2   force =    -0.00427723   -0.00427712    0.00000000
     atom   20 type  2   force =    -0.00427688   -0.00427688    0.00000000
     atom   21 type  2   force =    -0.00427722   -0.00427722    0.00000000
     atom   22 type  2   force =    -0.00427713   -0.00427707   -0.00000000
     atom   23 type  2   force =    -0.00427707   -0.00427713   -0.00000000
     atom   24 type  2   force =    -0.00427670   -0.00427670    0.00000000
     atom   25 type  2   force =     0.00427688    0.00427688   -0.00000000
     atom   26 type  2   force =     0.00427723    0.00427712    0.00000000
     atom   27 type  2   force =     0.00427712    0.00427723    0.00000000
     atom   28 type  2   force =     0.00427707    0.00427707    0.00000000
     atom   29 type  2   force =     0.00427670    0.00427670    0.00000000
     atom   30 type  2   force =     0.00427707    0.00427713   -0.00000000
     atom   31 type  2   force =     0.00427713    0.00427707   -0.00000000
     atom   32 type  2   force =     0.00427722    0.00427722    0.00000000
     atom   33 type  2   force =     0.00427680   -0.00427690   -0.00000024
     atom   34 type  2   force =     0.00427734   -0.00427734   -0.00000019
     atom   35 type  2   force =     0.00427722   -0.00427722   -0.00000024
     atom   36 type  2   force =     0.00427690   -0.00427680   -0.00000024
     atom   37 type  2   force =     0.00427680   -0.00427690    0.00000024
     atom   38 type  2   force =     0.00427734   -0.00427734    0.00000019
     atom   39 type  2   force =     0.00427722   -0.00427722    0.00000024
     atom   40 type  2   force =     0.00427690   -0.00427680    0.00000024
     atom   41 type  2   force =    -0.00427690    0.00427680   -0.00000024
     atom   42 type  2   force =    -0.00427722    0.00427722   -0.00000024
     atom   43 type  2   force =    -0.00427734    0.00427734   -0.00000019
     atom   44 type  2   force =    -0.00427680    0.00427690   -0.00000024
     atom   45 type  2   force =    -0.00427690    0.00427680    0.00000024
     atom   46 type  2   force =    -0.00427722    0.00427722    0.00000024
     atom   47 type  2   force =    -0.00427734    0.00427734    0.00000019
     atom   48 type  2   force =    -0.00427680    0.00427690    0.00000024

     Total force =     0.034216     Total SCF correction =     0.000033


     entering subroutine stress ...

          total   stress  (Ry/bohr**3)                   (kbar)     P=   12.90
   0.00005387   0.00000000   0.00000000          7.92      0.00      0.00
   0.00000000   0.00005387   0.00000000          0.00      7.92      0.00
   0.00000000   0.00000000   0.00015541          0.00      0.00     22.86


     init_run     :    332.32s CPU    333.29s WALL (       1 calls)
     electrons    :  12224.75s CPU  12262.70s WALL (       1 calls)
     forces       :    252.40s CPU    252.70s WALL (       1 calls)
     stress       :    333.07s CPU    333.63s WALL (       1 calls)

     Called by init_run:
     wfcinit      :    312.53s CPU    313.34s WALL (       1 calls)
     potinit      :      2.26s CPU      2.27s WALL (       1 calls)

     Called by electrons:
     c_bands      :  11188.19s CPU  11219.08s WALL (      11 calls)
     sum_band     :    958.08s CPU    963.23s WALL (      11 calls)
     v_of_rho     :      6.24s CPU      6.39s WALL (      12 calls)
     newd         :     77.63s CPU     79.48s WALL (      12 calls)
     mix_rho      :      0.98s CPU      1.00s WALL (      11 calls)

     Called by c_bands:
     init_us_2    :     12.86s CPU     12.89s WALL (     450 calls)
     cegterg      :  11156.62s CPU  11187.31s WALL (     198 calls)

     Called by sum_band:
     sum_band:bec :      0.74s CPU      0.72s WALL (     198 calls)
     addusdens    :    111.61s CPU    113.51s WALL (      11 calls)

     Called by *egterg:
     h_psi        :   4262.49s CPU   4276.85s WALL (     926 calls)
     s_psi        :   1698.65s CPU   1699.08s WALL (     926 calls)
     g_psi        :      4.06s CPU      4.08s WALL (     710 calls)
     cdiaghg      :    774.99s CPU    775.19s WALL (     908 calls)

     Called by h_psi:
     add_vuspsi   :   1699.90s CPU   1700.31s WALL (     926 calls)

     General routines
     calbec       :   2495.32s CPU   2496.06s WALL (    1214 calls)
     fft          :      6.38s CPU      6.64s WALL (     213 calls)
     ffts         :      0.10s CPU      0.12s WALL (      23 calls)
     fftw         :    865.96s CPU    878.12s WALL (  319020 calls)
     interpolate  :      0.89s CPU      0.93s WALL (      23 calls)

     Parallel routines
     fft_scatter  :    131.14s CPU    133.74s WALL (  319256 calls)

     PWSCF        :     3h39m CPU        3h39m WALL


   This run was terminated on:  15:27:50  12May2018            

=------------------------------------------------------------------------------=
   JOB DONE.
=------------------------------------------------------------------------------=
