
     Program PWSCF v.5.4.0 starts on 12May2018 at 15:27:50 

     This program is part of the open-source Quantum ESPRESSO suite
     for quantum simulation of materials; please cite
         "P. Giannozzi et al., J. Phys.:Condens. Matter 21 395502 (2009);
          URL http://www.quantum-espresso.org", 
     in publications or presentations arising from this work. More details at
     http://www.quantum-espresso.org/quote

     Parallel version (MPI), running on     4 processors
     R & G space division:  proc/nbgrp/npool/nimage =       4
     Reading input from scf.in
Warning: card &IONS ignored
Warning: card     ION_DYNAMICS='DAMP' ignored
Warning: card     POT_EXTRAPOLATION='SECOND_ORDER' ignored
Warning: card     WFC_EXTRAPOLATION='SECOND_ORDER' ignored
Warning: card / ignored

     Current dimensions of program PWSCF are:
     Max number of different atomic species (ntypx) = 10
     Max number of k-points (npk) =  40000
     Max angular momentum in pseudopotentials (lmaxx) =  3
               file Sn.pbesol-dn-rrkjus.UPF: wavefunction(s)  5S 4D renormalized
               file O.pbesol-nl-rrkjus.UPF: wavefunction(s)  2S renormalized

     Subspace diagonalization in iterative solution of the eigenvalue problem:
     a serial algorithm will be used

     Found symmetry operation: I + ( -0.5000  0.0000  0.0000)
     This is a supercell, fractional translations are disabled

     Parallelization info
     --------------------
     sticks:   dense  smooth     PW     G-vecs:    dense   smooth      PW
     Min        3893    1555    417               245577    62089    8632
     Max        3894    1556    418               245580    62101    8633
     Sum       15573    6221   1669               982315   248383   34531



     bravais-lattice index     =            0
     lattice parameter (alat)  =      18.0500  a.u.
     unit-cell volume          =    3957.7347 (a.u.)^3
     number of atoms/cell      =           48
     number of atomic types    =            2
     number of electrons       =       416.00
     number of Kohn-Sham states=          256
     kinetic-energy cutoff     =      60.0000  Ry
     charge density cutoff     =     600.0000  Ry
     convergence threshold     =      2.0E-09
     mixing beta               =       0.7000
     number of iterations used =            8  plain     mixing
     Exchange-correlation      = PBESOL ( 1  4 10  8 0 0)

     celldm(1)=  18.050000  celldm(2)=   0.000000  celldm(3)=   0.000000
     celldm(4)=   0.000000  celldm(5)=   0.000000  celldm(6)=   0.000000

     crystal axes: (cart. coord. in units of alat)
               a(1) = (   1.000000   0.000000   0.000000 )  
               a(2) = (   0.000000   1.000000   0.000000 )  
               a(3) = (   0.000000   0.000000   0.673000 )  

     reciprocal axes: (cart. coord. in units 2 pi/alat)
               b(1) = (  1.000000  0.000000  0.000000 )  
               b(2) = (  0.000000  1.000000  0.000000 )  
               b(3) = (  0.000000  0.000000  1.485884 )  


     PseudoPot. # 1 for Sn read from file:
     /home/raja/pseudo/Sn.pbesol-dn-rrkjus.UPF
     MD5 check sum: b150398e14deaf400293d9009fcc5675
     Pseudo is Ultrasoft + core correction, Zval = 14.0
     Generated using "atomic" code by A. Dal Corso  v.5.4.0
     Using radial grid of 1243 points,  6 beta functions with: 
                l(1) =   0
                l(2) =   0
                l(3) =   1
                l(4) =   1
                l(5) =   2
                l(6) =   2
     Q(r) pseudized with 0 coefficients 


     PseudoPot. # 2 for  O read from file:
     /home/raja/pseudo/O.pbesol-nl-rrkjus.UPF
     MD5 check sum: c80495934389d02e713646931b6a7a51
     Pseudo is Ultrasoft + core correction, Zval =  6.0
     Generated using "atomic" code by A. Dal Corso  v.5.4.0
     Using radial grid of 1095 points,  4 beta functions with: 
                l(1) =   0
                l(2) =   0
                l(3) =   1
                l(4) =   1
     Q(r) pseudized with 0 coefficients 


     atomic species   valence    mass     pseudopotential
        Sn            14.00   118.71000     Sn( 1.00)
        O              6.00    15.99900      O( 1.00)

      8 Sym. Ops., with inversion, found



   Cartesian axes

     site n.     atom                  positions (alat units)
         1           Sn  tau(   1) = (   0.0000000   0.0000000   0.0000000  )
         2           Sn  tau(   2) = (   0.5000000   0.0000000   0.0000000  )
         3           Sn  tau(   3) = (   0.0000000   0.5000000   0.0000000  )
         4           Sn  tau(   4) = (   0.5000000   0.5000000   0.0000000  )
         5           Sn  tau(   5) = (   0.0000000   0.0000000   0.3365000  )
         6           Sn  tau(   6) = (   0.5000000   0.0000000   0.3365000  )
         7           Sn  tau(   7) = (   0.0000000   0.5000000   0.3365000  )
         8           Sn  tau(   8) = (   0.5000000   0.5000000   0.3365000  )
         9           Sn  tau(   9) = (   0.2500000   0.2500000   0.1682500  )
        10           Sn  tau(  10) = (   0.7500000   0.2500000   0.1682500  )
        11           Sn  tau(  11) = (   0.2500000   0.7500000   0.1682500  )
        12           Sn  tau(  12) = (   0.7500000   0.7500000   0.1682500  )
        13           Sn  tau(  13) = (   0.2500000   0.2500000   0.5047500  )
        14           Sn  tau(  14) = (   0.7500000   0.2500000   0.5047500  )
        15           Sn  tau(  15) = (   0.2500000   0.7500000   0.5047500  )
        16           Sn  tau(  16) = (   0.7500000   0.7500000   0.5047500  )
        17           O   tau(  17) = (   0.1535000   0.1535000   0.0000000  )
        18           O   tau(  18) = (   0.6535000   0.1535000   0.0000000  )
        19           O   tau(  19) = (   0.1535000   0.6535000   0.0000000  )
        20           O   tau(  20) = (   0.6535000   0.6535000   0.0000000  )
        21           O   tau(  21) = (   0.1535000   0.1535000   0.3365000  )
        22           O   tau(  22) = (   0.6535000   0.1535000   0.3365000  )
        23           O   tau(  23) = (   0.1535000   0.6535000   0.3365000  )
        24           O   tau(  24) = (   0.6535000   0.6535000   0.3365000  )
        25           O   tau(  25) = (   0.3465000   0.3465000   0.0000000  )
        26           O   tau(  26) = (   0.8465000   0.3465000   0.0000000  )
        27           O   tau(  27) = (   0.3465000   0.8465000   0.0000000  )
        28           O   tau(  28) = (   0.8465000   0.8465000   0.0000000  )
        29           O   tau(  29) = (   0.3465000   0.3465000   0.3365000  )
        30           O   tau(  30) = (   0.8465000   0.3465000   0.3365000  )
        31           O   tau(  31) = (   0.3465000   0.8465000   0.3365000  )
        32           O   tau(  32) = (   0.8465000   0.8465000   0.3365000  )
        33           O   tau(  33) = (   0.0965000   0.4035000   0.1682500  )
        34           O   tau(  34) = (   0.5965000   0.4035000   0.1682500  )
        35           O   tau(  35) = (   0.0965000   0.9035000   0.1682500  )
        36           O   tau(  36) = (   0.5965000   0.9035000   0.1682500  )
        37           O   tau(  37) = (   0.0965000   0.4035000   0.5047500  )
        38           O   tau(  38) = (   0.5965000   0.4035000   0.5047500  )
        39           O   tau(  39) = (   0.0965000   0.9035000   0.5047500  )
        40           O   tau(  40) = (   0.5965000   0.9035000   0.5047500  )
        41           O   tau(  41) = (   0.4035000   0.0965000   0.1682500  )
        42           O   tau(  42) = (   0.9035000   0.0965000   0.1682500  )
        43           O   tau(  43) = (   0.4035000   0.5965000   0.1682500  )
        44           O   tau(  44) = (   0.9035000   0.5965000   0.1682500  )
        45           O   tau(  45) = (   0.4035000   0.0965000   0.5047500  )
        46           O   tau(  46) = (   0.9035000   0.0965000   0.5047500  )
        47           O   tau(  47) = (   0.4035000   0.5965000   0.5047500  )
        48           O   tau(  48) = (   0.9035000   0.5965000   0.5047500  )

     number of k points=    18
                       cart. coord. in units 2pi/alat
        k(    1) = (   0.1250000   0.1250000   0.1238237), wk =   0.0833333
        k(    2) = (   0.1250000   0.1250000   0.3714710), wk =   0.0833333
        k(    3) = (   0.1250000   0.1250000   0.6191184), wk =   0.0833333
        k(    4) = (   0.1250000   0.3750000   0.1238237), wk =   0.1666667
        k(    5) = (   0.1250000   0.3750000   0.3714710), wk =   0.1666667
        k(    6) = (   0.1250000   0.3750000   0.6191184), wk =   0.1666667
        k(    7) = (   0.3750000   0.3750000   0.1238237), wk =   0.0833333
        k(    8) = (   0.3750000   0.3750000   0.3714710), wk =   0.0833333
        k(    9) = (   0.3750000   0.3750000   0.6191184), wk =   0.0833333
        k(   10) = (  -0.1250000   0.1250000  -0.1238237), wk =   0.0833333
        k(   11) = (  -0.1250000   0.1250000  -0.3714710), wk =   0.0833333
        k(   12) = (  -0.1250000   0.1250000  -0.6191184), wk =   0.0833333
        k(   13) = (  -0.1250000   0.3750000  -0.1238237), wk =   0.1666667
        k(   14) = (  -0.1250000   0.3750000  -0.3714710), wk =   0.1666667
        k(   15) = (  -0.1250000   0.3750000  -0.6191184), wk =   0.1666667
        k(   16) = (  -0.3750000   0.3750000  -0.1238237), wk =   0.0833333
        k(   17) = (  -0.3750000   0.3750000  -0.3714710), wk =   0.0833333
        k(   18) = (  -0.3750000   0.3750000  -0.6191184), wk =   0.0833333

     Dense  grid:   982315 G-vectors     FFT dimensions: ( 144, 144,  96)

     Smooth grid:   248383 G-vectors     FFT dimensions: (  90,  90,  60)

     Largest allocated arrays     est. size (Mb)     dimensions
        Kohn-Sham Wavefunctions        30.59 Mb     (    7830,  256)
        NL pseudopotentials            65.00 Mb     (    7830,  544)
        Each V/rho on FFT grid          7.59 Mb     (  497664)
        Each G-vector array             1.87 Mb     (  245579)
        G-vector shells                 0.34 Mb     (   44069)
     Largest temporary arrays     est. size (Mb)     dimensions
        Auxiliary wavefunctions       122.34 Mb     (    7830, 1024)
        Each subspace H/S matrix       16.00 Mb     (    1024, 1024)
        Each <psi_i|beta_j> matrix      2.12 Mb     (     544,  256)
        Arrays for rho mixing          60.75 Mb     (  497664,    8)

     Initial potential from superposition of free atoms

     starting charge  415.97986, renormalised to  416.00000
     Starting wfc are  272 randomized atomic wfcs

     total cpu time spent up to now is      335.5 secs

     per-process dynamical memory:   783.4 Mb

     Self-consistent Calculation

     iteration #  1     ecut=    60.00 Ry     beta=0.70
     Davidson diagonalization with overlap
     ethr =  1.00E-02,  avg # of iterations =  3.0

     total cpu time spent up to now is     1306.9 secs

     total energy              =   -3632.58198809 Ry
     Harris-Foulkes estimate   =   -3641.56872222 Ry
     estimated scf accuracy    <      11.98057514 Ry

     iteration #  2     ecut=    60.00 Ry     beta=0.70
     Davidson diagonalization with overlap
     ethr =  2.88E-03,  avg # of iterations =  3.5

     total cpu time spent up to now is     2618.4 secs

     total energy              =   -3635.47867646 Ry
     Harris-Foulkes estimate   =   -3642.07881106 Ry
     estimated scf accuracy    <      13.76367381 Ry

     iteration #  3     ecut=    60.00 Ry     beta=0.70
     Davidson diagonalization with overlap
     ethr =  2.88E-03,  avg # of iterations =  2.9

     total cpu time spent up to now is     3645.1 secs

     total energy              =   -3638.19187783 Ry
     Harris-Foulkes estimate   =   -3638.19954291 Ry
     estimated scf accuracy    <       0.04065970 Ry

     iteration #  4     ecut=    60.00 Ry     beta=0.70
     Davidson diagonalization with overlap
     ethr =  9.77E-06,  avg # of iterations =  9.7

     total cpu time spent up to now is     5364.3 secs

     total energy              =   -3638.20826775 Ry
     Harris-Foulkes estimate   =   -3638.20857357 Ry
     estimated scf accuracy    <       0.00096159 Ry

     iteration #  5     ecut=    60.00 Ry     beta=0.70
     Davidson diagonalization with overlap
     ethr =  2.31E-07,  avg # of iterations =  5.2

     total cpu time spent up to now is     6434.4 secs

     total energy              =   -3638.20841495 Ry
     Harris-Foulkes estimate   =   -3638.20841424 Ry
     estimated scf accuracy    <       0.00006791 Ry

     iteration #  6     ecut=    60.00 Ry     beta=0.70
     Davidson diagonalization with overlap
     ethr =  1.63E-08,  avg # of iterations =  2.8

     total cpu time spent up to now is     7511.1 secs

     total energy              =   -3638.20842439 Ry
     Harris-Foulkes estimate   =   -3638.20842958 Ry
     estimated scf accuracy    <       0.00001132 Ry

     iteration #  7     ecut=    60.00 Ry     beta=0.70
     Davidson diagonalization with overlap
     ethr =  2.72E-09,  avg # of iterations =  3.0

     total cpu time spent up to now is     8548.5 secs

     total energy              =   -3638.20842676 Ry
     Harris-Foulkes estimate   =   -3638.20843020 Ry
     estimated scf accuracy    <       0.00000910 Ry

     iteration #  8     ecut=    60.00 Ry     beta=0.70
     Davidson diagonalization with overlap
     ethr =  2.19E-09,  avg # of iterations =  2.6

     total cpu time spent up to now is     9468.4 secs

     total energy              =   -3638.20842835 Ry
     Harris-Foulkes estimate   =   -3638.20842837 Ry
     estimated scf accuracy    <       0.00000005 Ry

     iteration #  9     ecut=    60.00 Ry     beta=0.70
     Davidson diagonalization with overlap
     ethr =  1.30E-11,  avg # of iterations =  3.0

     total cpu time spent up to now is    10861.1 secs

     total energy              =   -3638.20842838 Ry
     Harris-Foulkes estimate   =   -3638.20842840 Ry
     estimated scf accuracy    <       0.00000006 Ry

     iteration # 10     ecut=    60.00 Ry     beta=0.70
     Davidson diagonalization with overlap
     ethr =  1.30E-11,  avg # of iterations =  2.0

     total cpu time spent up to now is    11782.9 secs

     End of self-consistent calculation

          k = 0.1250 0.1250 0.1238 ( 31052 PWs)   bands (ev):

   -11.9087 -11.8460 -11.8460 -11.8277 -11.8277 -11.7188 -11.7079 -11.6847
   -11.6780 -11.6729 -11.6630 -11.6630 -11.6514 -11.5214 -11.5214 -11.2612
   -11.2394 -11.2158 -11.1898 -11.1305 -10.9967 -10.9967 -10.9788 -10.9788
   -10.9763 -10.9763 -10.9647 -10.9616 -10.9589 -10.9566 -10.9554 -10.9554
   -10.9530 -10.9360 -10.9320 -10.9248 -10.9248 -10.9155 -10.9154 -10.8670
   -10.8217 -10.8192 -10.8192 -10.8166 -10.8161 -10.8160 -10.8160 -10.8142
   -10.8135 -10.7877 -10.7877 -10.7776 -10.7749 -10.7723 -10.7723 -10.7694
   -10.7602 -10.7600 -10.7600 -10.7594 -10.7594 -10.7577 -10.7577 -10.7440
   -10.7281 -10.7204 -10.7204 -10.7190 -10.7190 -10.7167 -10.7159 -10.7140
   -10.7140 -10.7129 -10.7129 -10.7120 -10.7107 -10.7107 -10.7072 -10.7072
    -9.6216  -9.0422  -9.0422  -8.6971  -8.6971  -8.3027  -8.2843  -8.2843
    -8.2639  -8.1765  -8.1765  -7.9097  -7.9082  -7.8869  -7.8237  -7.8024
    -7.8000  -7.7581  -7.5122  -7.0061  -7.0060  -6.6718  -6.6718  -6.4990
    -6.4538  -6.4251  -6.3867  -6.2550  -6.2550  -6.2232  -6.2232  -6.1766
     1.0502   1.1872   1.2419   1.6323   2.0116   2.0116   2.1973   2.1973
     2.2019   2.2538   2.2538   2.9698   2.9698   3.3055   3.5493   3.6294
     3.6294   3.8124   3.8124   4.1964   4.1966   4.8038   4.8939   4.9051
     4.9051   4.9603   4.9858   5.0093   5.0093   5.1091   5.2242   5.2552
     5.4258   5.4939   5.5596   5.5596   5.8345   5.9220   5.9220   6.0817
     6.1208   6.1577   6.1577   6.1818   6.4692   6.5378   6.6319   6.6319
     6.6359   6.8284   6.8738   6.9890   6.9890   7.0565   7.1343   7.2215
     7.2911   7.3265   7.3265   7.3576   7.4013   7.4013   7.4774   7.4774
     7.7472   7.7865   7.8104   7.8354   7.8695   7.8696   7.8696   7.8988
     7.8988   7.9108   7.9359   8.0143   8.0144   8.1046   8.1046   8.1561
     8.1638   8.2329   8.2585   8.2801   8.2801   8.2881   8.3023   8.3196
     8.3851   8.3851   8.4029   8.4680   8.4680   8.5525   8.5526   9.0839
    10.3804  12.8538  12.8538  13.5185  13.6599  13.6599  13.6703  13.7676
    13.7977  14.7107  14.8834  15.0107  15.0107  15.2021  15.2021  15.2423
    15.3277  15.3278  15.9476  15.9476  16.0188  16.0188  16.3646  16.3744
    16.8901  16.8901  17.1646  17.1646  17.6706  17.8447  18.0851  18.7483
    19.0339  19.3599  19.4896  19.5919  19.5920  19.6647  19.6864  19.6952
    19.6952  19.7405  19.7479  19.7479  19.7819  19.7820  19.8044  19.8261

          k = 0.1250 0.1250 0.3715 ( 31058 PWs)   bands (ev):

   -11.8467 -11.7821 -11.7821 -11.7610 -11.7610 -11.6468 -11.6416 -11.6243
   -11.6242 -11.6166 -11.6064 -11.5953 -11.5913 -11.4941 -11.4941 -11.3937
   -11.2895 -11.2325 -11.1547 -11.0809 -11.0800 -11.0765 -11.0740 -11.0740
   -11.0717 -11.0715 -11.0714 -11.0481 -11.0481 -11.0416 -10.9710 -10.9709
   -10.9350 -10.9160 -10.9118 -10.9030 -10.9029 -10.8874 -10.8874 -10.8688
   -10.8185 -10.8185 -10.8167 -10.8128 -10.8128 -10.8055 -10.8038 -10.8037
   -10.8019 -10.7854 -10.7854 -10.7813 -10.7754 -10.7730 -10.7728 -10.7712
   -10.7711 -10.7666 -10.7666 -10.7625 -10.7611 -10.7607 -10.7607 -10.7597
   -10.7575 -10.7521 -10.7488 -10.7488 -10.7472 -10.7458 -10.7458 -10.7443
   -10.7316 -10.7316 -10.7303 -10.7303 -10.7300 -10.7293 -10.7293 -10.7292
    -9.5470  -8.9373  -8.9372  -8.7345  -8.5731  -8.5731  -8.4293  -8.4293
    -8.2004  -8.1643  -8.1643  -7.9258  -7.8940  -7.8291  -7.7018  -7.6135
    -7.5976  -7.4036  -7.3024  -6.9055  -6.9055  -6.6793  -6.6197  -6.6197
    -6.6129  -6.6003  -6.5277  -6.3511  -6.3511  -6.2925  -6.2924  -6.2652
     1.0404   1.2775   1.4526   1.5098   2.0655   2.0655   2.2642   2.2642
     2.4345   2.4345   2.9559   2.9839   2.9839   3.0133   3.1722   3.7098
     3.7098   3.9006   3.9006   4.4949   4.4959   4.7043   4.8536   4.9094
     4.9095   5.1438   5.1439   5.1504   5.1504   5.1829   5.2187   5.2187
     5.2367   5.2771   5.3143   5.3308   5.3747   5.6728   5.7213   6.0021
     6.1617   6.1981   6.2326   6.3252   6.3433   6.4747   6.4747   6.5154
     6.5900   6.6756   6.6962   6.7859   6.7859   7.0005   7.0176   7.0176
     7.0775   7.1660   7.3013   7.3571   7.4114   7.4114   7.4411   7.4411
     7.5236   7.5236   7.6814   7.6814   7.7834   7.7834   7.9100   7.9100
     7.9812   8.0693   8.0774   8.0877   8.1346   8.1347   8.1420   8.1632
     8.2064   8.2064   8.2089   8.2697   8.3073   8.3454   8.3550   8.3587
     8.3827   8.3827   8.4173   8.4195   8.4195   8.5267   8.5267   8.9881
    11.1452  13.1850  13.1850  13.6761  13.8227  13.8400  13.8971  13.9641
    13.9641  14.0313  14.7178  14.7178  15.1127  15.1127  15.1842  15.6020
    15.8704  15.8895  16.4437  16.4438  16.5048  16.5049  16.7578  16.7615
    17.1593  17.1593  17.3772  17.3772  17.7315  17.7728  17.9189  18.3598
    18.5968  18.6879  19.0171  19.0171  19.0982  19.0982  19.3243  19.3244
    19.3340  19.3340  19.3566  19.4341  19.5735  19.5962  19.7170  19.8515

          k = 0.1250 0.1250 0.6191 ( 31097 PWs)   bands (ev):

   -11.7354 -11.6786 -11.6786 -11.6440 -11.6440 -11.6131 -11.6057 -11.6057
   -11.5312 -11.5250 -11.5250 -11.5215 -11.4946 -11.4601 -11.4502 -11.4356
   -11.3833 -11.2977 -11.2773 -11.2702 -11.2624 -11.2454 -11.1552 -11.1552
   -11.1259 -11.1258 -11.1009 -11.1009 -11.0306 -11.0306 -11.0215 -10.9871
   -10.8919 -10.8776 -10.8756 -10.8747 -10.8742 -10.8742 -10.8652 -10.8651
   -10.8383 -10.8383 -10.8356 -10.8351 -10.8351 -10.8265 -10.8234 -10.8206
   -10.8073 -10.7958 -10.7825 -10.7819 -10.7819 -10.7806 -10.7806 -10.7790
   -10.7787 -10.7773 -10.7740 -10.7740 -10.7722 -10.7706 -10.7706 -10.7694
   -10.7663 -10.7643 -10.7594 -10.7594 -10.7547 -10.7544 -10.7544 -10.7540
   -10.7539 -10.7527 -10.7486 -10.7486 -10.7476 -10.7460 -10.7460 -10.7447
    -9.3859  -9.1176  -8.7759  -8.7759  -8.5998  -8.5998  -8.3957  -8.3957
    -8.2427  -8.2427  -8.0805  -7.9900  -7.8707  -7.8462  -7.3636  -7.3165
    -7.2675  -7.1775  -7.0871  -6.9928  -6.9057  -6.8824  -6.7290  -6.7290
    -6.6271  -6.5246  -6.5246  -6.5239  -6.5239  -6.4405  -6.4043  -6.4043
     1.0409   1.0983   1.9261   1.9934   2.1762   2.1762   2.2520   2.2520
     2.4991   2.5935   2.7510   2.7510   2.9483   2.9483   3.8748   3.9270
     3.9270   4.0543   4.0543   4.3442   4.3442   4.4493   4.4493   4.6606
     4.6935   4.9417   5.0219   5.0229   5.3392   5.4645   5.4993   5.5144
     5.5637   5.5914   5.6103   5.6104   5.6664   5.6664   5.6813   5.7686
     5.8465   5.9237   6.0154   6.0241   6.1635   6.1635   6.2704   6.2704
     6.2800   6.3823   6.5009   6.5379   6.7016   6.7084   6.7264   6.7498
     6.9647   6.9722   7.2657   7.2657   7.4696   7.4696   7.5227   7.5227
     7.5730   7.5730   7.6589   7.6589   7.7624   7.7624   7.8300   7.8300
     8.0477   8.0477   8.0697   8.1280   8.2152   8.2196   8.2196   8.2376
     8.2449   8.2460   8.2838   8.2981   8.3223   8.3223   8.3403   8.3644
     8.4034   8.4034   8.4137   8.4156   8.4673   8.4673   8.4986   8.7893
    12.1697  13.1725  13.7080  13.7080  13.8516  13.9050  13.9794  13.9985
    14.2588  14.2588  14.4202  14.4202  14.8440  14.8440  15.5505  15.7254
    16.7617  16.7933  17.2394  17.2394  17.2556  17.2556  17.3518  17.3524
    17.5778  17.5778  17.6190  17.6576  17.6576  17.7603  17.7751  17.7913
    17.8266  17.8540  18.2785  18.2785  18.3278  18.3278  18.7280  18.7280
    18.8026  18.8026  19.0090  19.0793  19.3913  19.5110  19.7703  19.9273

          k = 0.1250 0.3750 0.1238 ( 31044 PWs)   bands (ev):

   -11.8656 -11.8291 -11.8268 -11.7817 -11.7810 -11.7791 -11.7761 -11.7745
   -11.7171 -11.7094 -11.6829 -11.6734 -11.6060 -11.5556 -11.3792 -11.2694
   -11.1944 -11.1889 -11.0880 -11.0854 -11.0850 -11.0493 -10.9928 -10.9773
   -10.9752 -10.9749 -10.9717 -10.9707 -10.9691 -10.9679 -10.9624 -10.9618
   -10.9447 -10.9346 -10.9344 -10.9291 -10.9253 -10.9189 -10.9048 -10.8878
   -10.8211 -10.8207 -10.8190 -10.8183 -10.8182 -10.8178 -10.8169 -10.8161
   -10.8149 -10.8027 -10.7852 -10.7816 -10.7731 -10.7723 -10.7670 -10.7636
   -10.7605 -10.7603 -10.7589 -10.7586 -10.7586 -10.7580 -10.7577 -10.7489
   -10.7238 -10.7192 -10.7189 -10.7169 -10.7165 -10.7162 -10.7160 -10.7158
   -10.7150 -10.7137 -10.7132 -10.7130 -10.7121 -10.7111 -10.7097 -10.7077
    -9.5220  -9.3252  -8.9051  -8.6483  -8.5460  -8.3301  -8.3186  -8.2962
    -8.2697  -8.2003  -8.0543  -8.0446  -8.0180  -8.0032  -7.9014  -7.8589
    -7.6354  -7.5182  -7.3490  -7.1940  -7.1347  -6.8365  -6.4445  -6.4045
    -6.3977  -6.3498  -6.3403  -6.3255  -6.3107  -6.2594  -6.2451  -6.2412
     1.2579   1.3267   1.4845   1.6348   1.6673   1.6942   1.8234   1.8656
     2.2389   2.2692   2.4809   2.8737   3.1584   3.4313   3.7476   3.7962
     4.0304   4.2067   4.2127   4.2569   4.2635   4.2754   4.4828   4.6378
     4.7780   4.8594   4.8729   5.0938   5.1234   5.1593   5.1983   5.2808
     5.3650   5.3698   5.4295   5.5223   5.7075   5.7548   5.8106   5.8718
     6.0198   6.0626   6.2903   6.3120   6.3145   6.4940   6.6036   6.6629
     6.8398   6.9916   7.0107   7.1708   7.1993   7.2239   7.2658   7.2923
     7.3447   7.3951   7.4587   7.4765   7.4886   7.5282   7.6864   7.7360
     7.7442   7.7561   7.7963   7.8122   7.8290   7.8322   7.8436   7.8603
     7.8815   7.8912   7.8927   7.9099   8.0144   8.0169   8.0218   8.0343
     8.0467   8.0875   8.1302   8.1777   8.2249   8.2280   8.2633   8.2804
     8.3135   8.3870   8.4011   8.4090   8.4301   8.4923   8.7287   8.9458
    11.0460  11.9408  13.0218  13.2770  13.6883  13.7124  14.0264  14.1322
    14.2694  14.5016  14.6600  14.6972  14.7519  14.8466  15.2754  15.2936
    15.4520  15.5636  15.6941  15.8444  16.0783  16.1278  16.2503  16.2785
    17.0464  17.1382  17.4478  17.5401  17.6606  17.7183  17.9028  18.3472
    19.2685  19.4290  19.5098  19.5122  19.5307  19.5549  19.5550  19.6115
    19.6452  19.7534  19.7630  19.7682  19.7866  19.8295  19.9684  19.9860

          k = 0.1250 0.3750 0.3715 ( 31056 PWs)   bands (ev):

   -11.8078 -11.7659 -11.7641 -11.7319 -11.7146 -11.7145 -11.7124 -11.7071
   -11.6453 -11.6367 -11.6272 -11.6271 -11.5548 -11.5176 -11.3569 -11.2958
   -11.2345 -11.2344 -11.1663 -11.1292 -11.1212 -11.0795 -11.0769 -11.0765
   -11.0764 -11.0756 -11.0734 -11.0689 -11.0680 -11.0217 -10.9907 -10.9537
   -10.9293 -10.9178 -10.9148 -10.9090 -10.9033 -10.8936 -10.8747 -10.8684
   -10.8179 -10.8161 -10.8115 -10.8112 -10.8109 -10.8104 -10.8071 -10.8069
   -10.8041 -10.7990 -10.7829 -10.7792 -10.7775 -10.7725 -10.7712 -10.7709
   -10.7653 -10.7648 -10.7639 -10.7607 -10.7605 -10.7586 -10.7567 -10.7566
   -10.7550 -10.7530 -10.7526 -10.7520 -10.7494 -10.7483 -10.7463 -10.7456
   -10.7315 -10.7315 -10.7310 -10.7305 -10.7299 -10.7296 -10.7285 -10.7282
    -9.4432  -9.2359  -8.7980  -8.7026  -8.6098  -8.5403  -8.4255  -8.3171
    -8.1839  -8.1602  -8.1254  -8.0532  -7.9010  -7.8473  -7.8313  -7.5310
    -7.4584  -7.4015  -7.2060  -7.0888  -7.0498  -6.7714  -6.6031  -6.5565
    -6.4694  -6.4606  -6.4542  -6.4047  -6.3979  -6.3467  -6.3068  -6.2927
     1.2545   1.4254   1.5563   1.6718   1.7027   1.7285   1.7956   2.0807
     2.4404   2.7149   2.7284   2.8785   3.0678   3.1658   3.7598   3.8308
     4.1304   4.2213   4.3538   4.4016   4.4487   4.5332   4.5579   4.8055
     4.9198   4.9382   4.9663   5.0424   5.0509   5.1161   5.1351   5.1902
     5.2516   5.2519   5.2588   5.3234   5.4571   5.4689   5.7078   5.7120
     5.7901   6.1296   6.1782   6.3201   6.3522   6.4675   6.6013   6.6394
     6.6554   6.6627   6.8776   6.9878   7.0403   7.0821   7.1396   7.1643
     7.2127   7.2366   7.2630   7.3670   7.4145   7.4413   7.5111   7.5356
     7.5769   7.6666   7.6835   7.7033   7.7236   7.7668   7.8139   7.8644
     7.9070   7.9853   8.0001   8.0197   8.0321   8.0582   8.0623   8.1002
     8.1621   8.2055   8.2207   8.2329   8.2816   8.3356   8.3491   8.3499
     8.3577   8.3997   8.4056   8.4083   8.4731   8.5297   8.7209   8.8984
    11.6090  12.3509  13.2984  13.4831  13.9056  13.9452  14.0244  14.1380
    14.2010  14.3667  14.3809  14.5776  14.6836  14.9782  15.4107  15.5550
    15.9832  16.0719  16.2038  16.3284  16.5466  16.5874  16.6784  16.6949
    17.2217  17.3267  17.4835  17.5777  17.7588  17.8157  17.9609  18.3031
    18.5615  18.7600  18.8132  18.9003  18.9981  19.0950  19.1199  19.1546
    19.3526  19.4279  19.4487  19.4876  19.5494  19.5974  19.8523  20.1309

          k = 0.1250 0.3750 0.6191 ( 31073 PWs)   bands (ev):

   -11.7132 -11.6816 -11.6694 -11.6572 -11.6551 -11.6075 -11.6018 -11.5895
   -11.5819 -11.5591 -11.5292 -11.5134 -11.5056 -11.4968 -11.4330 -11.3529
   -11.3412 -11.3002 -11.2447 -11.2444 -11.2396 -11.2063 -11.1951 -11.1931
   -11.1897 -11.1822 -11.1341 -11.0851 -11.0550 -11.0278 -10.9731 -10.9650
   -10.8893 -10.8829 -10.8783 -10.8770 -10.8704 -10.8666 -10.8644 -10.8599
   -10.8394 -10.8379 -10.8352 -10.8311 -10.8292 -10.8285 -10.8282 -10.8225
   -10.8024 -10.7938 -10.7933 -10.7882 -10.7833 -10.7816 -10.7800 -10.7763
   -10.7760 -10.7759 -10.7750 -10.7724 -10.7723 -10.7702 -10.7693 -10.7658
   -10.7658 -10.7625 -10.7611 -10.7608 -10.7574 -10.7552 -10.7529 -10.7520
   -10.7517 -10.7515 -10.7511 -10.7504 -10.7489 -10.7487 -10.7451 -10.7445
    -9.2869  -9.0814  -9.0422  -8.8724  -8.6378  -8.4705  -8.3885  -8.2585
    -8.2446  -8.1213  -8.0292  -7.9794  -7.9396  -7.8359  -7.5830  -7.4244
    -7.1690  -7.1633  -6.9619  -6.8977  -6.8842  -6.8722  -6.8346  -6.6861
    -6.6695  -6.6666  -6.6486  -6.4923  -6.4495  -6.3992  -6.3831  -6.3704
     1.2561   1.2941   1.6668   1.6707   1.9554   2.0609   2.1672   2.3084
     2.3998   2.4462   2.6953   2.8238   3.2811   3.6690   3.6725   4.0124
     4.2513   4.2762   4.2888   4.4302   4.4495   4.5807   4.6177   4.6844
     4.7318   4.7323   4.8436   4.9642   5.0378   5.0399   5.0737   5.2160
     5.2431   5.4091   5.5487   5.5968   5.6076   5.6605   5.7434   5.8034
     5.8150   5.9115   5.9909   6.0123   6.1079   6.1114   6.1915   6.3678
     6.3724   6.4963   6.6834   6.7233   6.8946   6.9634   6.9857   7.0043
     7.0564   7.1826   7.2278   7.3012   7.3110   7.3185   7.3228   7.4855
     7.4960   7.5518   7.5742   7.6431   7.6971   7.8543   7.8565   7.8595
     7.8953   7.9233   8.0401   8.0604   8.0828   8.1525   8.2022   8.2407
     8.2551   8.2669   8.2877   8.3085   8.3297   8.3433   8.3585   8.3609
     8.4335   8.4622   8.5089   8.5101   8.5182   8.5206   8.6526   8.7584
    12.4596  13.0060  13.3505  13.7184  13.7225  13.7622  13.9586  14.1149
    14.1364  14.2393  14.3028  14.5740  15.0059  15.3255  15.3825  15.6116
    16.8417  16.9002  17.0445  17.0681  17.2801  17.3082  17.3309  17.3438
    17.5357  17.5604  17.6366  17.7208  17.7304  17.7661  17.7951  17.8554
    17.8627  17.9739  18.0057  18.1247  18.3676  18.3823  18.6031  18.6280
    18.8778  18.9763  19.1502  19.2589  19.2797  19.4889  19.7843  20.1352

          k = 0.3750 0.3750 0.1238 ( 31052 PWs)   bands (ev):

   -11.8460 -11.8460 -11.8332 -11.8295 -11.8260 -11.7685 -11.7685 -11.7372
   -11.7134 -11.7134 -11.6814 -11.6765 -11.5157 -11.4314 -11.4314 -11.3271
   -11.2374 -11.2358 -11.1864 -11.1864 -10.9905 -10.9784 -10.9784 -10.9774
   -10.9743 -10.9732 -10.9623 -10.9622 -10.9582 -10.9572 -10.9488 -10.9488
   -10.9460 -10.9405 -10.9390 -10.9390 -10.9160 -10.9084 -10.9084 -10.8974
   -10.8220 -10.8220 -10.8209 -10.8205 -10.8182 -10.8178 -10.8178 -10.8174
   -10.8090 -10.7982 -10.7982 -10.7907 -10.7657 -10.7655 -10.7631 -10.7631
   -10.7621 -10.7610 -10.7610 -10.7578 -10.7575 -10.7574 -10.7574 -10.7531
   -10.7210 -10.7203 -10.7203 -10.7192 -10.7189 -10.7159 -10.7159 -10.7154
   -10.7134 -10.7134 -10.7124 -10.7121 -10.7105 -10.7092 -10.7084 -10.7084
    -9.4141  -9.2036  -9.2036  -8.9707  -8.3195  -8.2975  -8.2975  -8.1999
    -8.1693  -8.1693  -7.9197  -7.9197  -7.8860  -7.8775  -7.8555  -7.8526
    -7.8439  -7.8320  -7.5484  -7.5484  -6.7890  -6.5347  -6.5346  -6.4776
    -6.4470  -6.4215  -6.4215  -6.3327  -6.2607  -6.2420  -6.2215  -6.2215
     1.3499   1.4771   1.5401   1.5401   1.5810   1.7991   1.8985   1.8985
     2.1613   2.1613   2.3171   2.3246   3.8013   3.8338   3.8338   3.8608
     3.8608   3.8972   4.3311   4.3563   4.3707   4.4004   4.4178   4.4178
     4.5919   4.5919   4.5992   4.6539   5.1243   5.1888   5.2457   5.2457
     5.4501   5.6953   5.6953   5.6975   5.6975   5.7932   5.9748   6.0239
     6.2259   6.2259   6.4182   6.4203   6.4750   6.5066   6.5100   6.6434
     6.6680   6.6680   6.8087   6.9667   6.9667   6.9748   6.9748   7.3847
     7.4283   7.4616   7.4616   7.4703   7.6214   7.7403   7.7500   7.7500
     7.7677   7.7685   7.7814   7.7815   7.8478   7.8478   7.8995   7.9140
     7.9171   7.9171   7.9199   7.9460   7.9509   7.9578   7.9933   7.9933
     8.0539   8.0951   8.1094   8.1094   8.1294   8.2221   8.2342   8.2342
     8.3136   8.3665   8.3665   8.3709   8.5206   8.6559   8.6559   8.8381
    11.5362  12.2611  12.2611  12.7567  14.0043  14.1731  14.1740  14.1740
    14.4771  14.4920  14.4920  14.5131  14.6093  15.0364  15.0364  15.2786
    15.6567  15.7169  15.8769  15.8769  15.9716  15.9716  16.0944  16.1597
    16.8589  16.8589  16.9824  17.0856  18.3324  18.3324  18.3660  18.9198
    19.0827  19.2945  19.3074  19.3501  19.3614  19.3614  19.3711  19.3711
    19.7387  19.7821  19.7821  19.8073  19.8148  20.0884  20.1227  20.1581

          k = 0.3750 0.3750 0.3715 ( 31074 PWs)   bands (ev):

   -11.7822 -11.7821 -11.7770 -11.7648 -11.7638 -11.7160 -11.7160 -11.6817
   -11.6416 -11.6415 -11.6032 -11.5985 -11.4736 -11.4006 -11.4006 -11.3130
   -11.2974 -11.2932 -11.2448 -11.2448 -11.0798 -11.0780 -11.0780 -11.0779
   -11.0731 -11.0700 -11.0700 -11.0678 -11.0161 -10.9571 -10.9570 -10.9546
   -10.9284 -10.9216 -10.9216 -10.9215 -10.8898 -10.8787 -10.8787 -10.8700
   -10.8176 -10.8176 -10.8154 -10.8142 -10.8076 -10.8076 -10.8065 -10.8061
   -10.8048 -10.7948 -10.7948 -10.7878 -10.7734 -10.7697 -10.7697 -10.7664
   -10.7648 -10.7634 -10.7605 -10.7605 -10.7600 -10.7589 -10.7588 -10.7570
   -10.7553 -10.7553 -10.7534 -10.7531 -10.7493 -10.7471 -10.7471 -10.7467
   -10.7321 -10.7321 -10.7321 -10.7312 -10.7289 -10.7287 -10.7287 -10.7287
    -9.3300  -9.1093  -9.1093  -8.8690  -8.6515  -8.5257  -8.5257  -8.3551
    -8.0357  -8.0357  -7.8390  -7.7902  -7.7902  -7.7759  -7.7293  -7.6712
    -7.6281  -7.6030  -7.4072  -7.4072  -6.7364  -6.6563  -6.6236  -6.5791
    -6.5790  -6.5132  -6.5132  -6.3539  -6.3472  -6.3103  -6.2893  -6.2893
     1.4712   1.4797   1.5227   1.5983   1.5983   1.8825   1.8825   2.0389
     2.2619   2.4351   2.4352   2.7515   3.4711   3.6509   3.6509   3.9223
     3.9271   3.9271   4.0926   4.3959   4.6654   4.6675   4.6934   4.6934
     4.8690   4.8690   4.9250   4.9482   5.0809   5.0809   5.2598   5.3208
     5.3428   5.4265   5.4265   5.5446   5.6595   5.6596   5.6600   5.8648
     5.9543   5.9543   6.0356   6.2151   6.2681   6.3677   6.4141   6.4879
     6.5162   6.5162   6.7492   6.8556   6.8556   6.9428   6.9428   7.1067
     7.3542   7.3646   7.3661   7.4986   7.4986   7.5628   7.5787   7.5787
     7.6160   7.6262   7.6262   7.7112   7.7846   7.7846   7.8099   7.8674
     7.8674   7.9258   7.9378   7.9933   8.0491   8.0783   8.0783   8.1340
     8.1368   8.2313   8.2386   8.2386   8.2555   8.3286   8.3351   8.3351
     8.3637   8.3706   8.3706   8.3875   8.6120   8.7001   8.7001   8.8384
    11.9857  12.6019  12.6019  13.0171  14.0496  14.1472  14.2092  14.2092
    14.2288  14.4501  14.4501  14.5820  14.7874  15.0712  15.0712  15.4052
    16.1455  16.2202  16.3597  16.3597  16.4397  16.4397  16.5530  16.5930
    17.0932  17.0932  17.1524  17.2662  18.2682  18.2682  18.3084  18.6031
    18.6121  18.6623  18.7420  18.7420  18.8096  18.8584  18.8584  18.9089
    19.5825  19.5825  19.6654  19.7673  19.8701  19.9578  19.9606  19.9606

          k = 0.3750 0.3750 0.6191 ( 31080 PWs)   bands (ev):

   -11.6919 -11.6824 -11.6824 -11.6780 -11.6597 -11.6503 -11.6503 -11.6127
   -11.5226 -11.5226 -11.4573 -11.4533 -11.4452 -11.4297 -11.4297 -11.3977
   -11.3856 -11.3603 -11.3115 -11.3115 -11.2680 -11.2648 -11.2426 -11.2426
   -11.1284 -11.0798 -11.0798 -11.0755 -11.0428 -11.0022 -11.0022 -10.9639
   -10.8896 -10.8854 -10.8853 -10.8838 -10.8622 -10.8578 -10.8578 -10.8567
   -10.8417 -10.8403 -10.8403 -10.8360 -10.8226 -10.8226 -10.8223 -10.8189
   -10.7978 -10.7935 -10.7899 -10.7899 -10.7891 -10.7890 -10.7886 -10.7837
   -10.7753 -10.7726 -10.7726 -10.7702 -10.7702 -10.7694 -10.7670 -10.7670
   -10.7645 -10.7621 -10.7621 -10.7578 -10.7571 -10.7536 -10.7536 -10.7525
   -10.7515 -10.7515 -10.7507 -10.7506 -10.7500 -10.7475 -10.7474 -10.7468
    -9.1754  -8.9539  -8.9539  -8.9501  -8.7571  -8.7571  -8.7130  -8.5373
    -7.8637  -7.8636  -7.7761  -7.7623  -7.7623  -7.7446  -7.5710  -7.4948
    -7.3355  -7.2957  -7.1527  -7.1527  -6.9674  -6.9313  -6.8484  -6.8484
    -6.6309  -6.4875  -6.4651  -6.4651  -6.3853  -6.3853  -6.3824  -6.3772
     1.4432   1.4553   1.7138   1.7138   1.8087   1.8251   1.8251   2.0911
     2.4663   2.8641   2.8642   2.9793   3.3006   3.3006   3.3158   3.7540
     4.1413   4.1547   4.1547   4.4812   4.6669   4.6669   4.7657   4.7851
     5.0166   5.0166   5.0685   5.0685   5.1934   5.1937   5.3787   5.3787
     5.4050   5.4639   5.5131   5.5449   5.6312   5.7312   5.7340   5.7340
     5.8592   5.9110   5.9346   5.9381   5.9381   6.0492   6.1348   6.1348
     6.1392   6.3831   6.4090   6.5236   6.5656   6.5656   6.6763   6.6763
     7.1035   7.1678   7.3829   7.3829   7.4446   7.4446   7.5072   7.5812
     7.6021   7.6704   7.6852   7.7492   7.7492   7.7941   7.7941   7.8948
     7.9527   7.9527   7.9796   7.9996   8.1176   8.1176   8.1559   8.2133
     8.2601   8.2601   8.2621   8.2844   8.3169   8.3277   8.3277   8.3491
     8.5316   8.5317   8.5350   8.5378   8.6278   8.6648   8.6648   8.7431
    12.7008  13.1486  13.1486  13.4152  13.4716  13.7294  13.7294  13.7924
    14.4976  14.6190  14.8097  14.8097  15.0338  15.0338  15.1812  15.4092
    16.9426  17.0360  17.1549  17.1549  17.1754  17.1755  17.2804  17.2903
    17.4415  17.4872  17.4872  17.5863  17.8850  17.9014  17.9014  17.9225
    17.9488  17.9706  18.0542  18.0542  18.0599  18.0599  18.1851  18.2130
    19.4862  19.4862  19.6508  19.6751  19.6751  19.8323  19.9245  20.0826

          k =-0.1250 0.1250-0.1238 ( 31052 PWs)   bands (ev):

   -11.9087 -11.8460 -11.8460 -11.8277 -11.8277 -11.7188 -11.7079 -11.6847
   -11.6780 -11.6729 -11.6630 -11.6630 -11.6514 -11.5214 -11.5214 -11.2612
   -11.2394 -11.2158 -11.1898 -11.1305 -10.9967 -10.9967 -10.9788 -10.9788
   -10.9763 -10.9763 -10.9647 -10.9616 -10.9589 -10.9566 -10.9554 -10.9554
   -10.9530 -10.9360 -10.9320 -10.9248 -10.9248 -10.9154 -10.9154 -10.8670
   -10.8217 -10.8192 -10.8192 -10.8167 -10.8161 -10.8160 -10.8160 -10.8142
   -10.8135 -10.7877 -10.7877 -10.7776 -10.7749 -10.7723 -10.7723 -10.7694
   -10.7602 -10.7600 -10.7600 -10.7595 -10.7594 -10.7577 -10.7577 -10.7440
   -10.7281 -10.7204 -10.7204 -10.7190 -10.7190 -10.7167 -10.7159 -10.7140
   -10.7140 -10.7129 -10.7129 -10.7119 -10.7107 -10.7107 -10.7072 -10.7072
    -9.6216  -9.0422  -9.0422  -8.6971  -8.6971  -8.3027  -8.2843  -8.2843
    -8.2639  -8.1765  -8.1765  -7.9097  -7.9082  -7.8869  -7.8237  -7.8024
    -7.8000  -7.7581  -7.5122  -7.0060  -7.0060  -6.6718  -6.6718  -6.4990
    -6.4537  -6.4251  -6.3867  -6.2550  -6.2550  -6.2232  -6.2232  -6.1766
     1.0502   1.1872   1.2418   1.6323   2.0116   2.0116   2.1973   2.1973
     2.2019   2.2538   2.2538   2.9698   2.9698   3.3055   3.5493   3.6294
     3.6294   3.8124   3.8124   4.1964   4.1966   4.8038   4.8939   4.9051
     4.9051   4.9603   4.9858   5.0093   5.0093   5.1091   5.2242   5.2552
     5.4258   5.4939   5.5596   5.5596   5.8345   5.9220   5.9220   6.0817
     6.1208   6.1577   6.1577   6.1818   6.4692   6.5378   6.6319   6.6319
     6.6359   6.8284   6.8738   6.9890   6.9890   7.0565   7.1343   7.2215
     7.2911   7.3265   7.3265   7.3576   7.4013   7.4013   7.4774   7.4774
     7.7472   7.7865   7.8104   7.8354   7.8696   7.8696   7.8696   7.8988
     7.8988   7.9107   7.9359   8.0143   8.0144   8.1046   8.1046   8.1561
     8.1638   8.2329   8.2586   8.2801   8.2801   8.2881   8.3023   8.3196
     8.3851   8.3851   8.4029   8.4680   8.4680   8.5526   8.5526   9.0839
    10.3804  12.8538  12.8538  13.5185  13.6599  13.6599  13.6703  13.7676
    13.7977  14.7107  14.8834  15.0107  15.0107  15.2021  15.2021  15.2423
    15.3277  15.3278  15.9476  15.9476  16.0188  16.0188  16.3646  16.3744
    16.8901  16.8901  17.1646  17.1646  17.6706  17.8447  18.0851  18.7483
    19.0339  19.3599  19.4896  19.5919  19.5920  19.6648  19.6864  19.6952
    19.6952  19.7406  19.7479  19.7479  19.7819  19.7820  19.8044  19.8261

          k =-0.1250 0.1250-0.3715 ( 31058 PWs)   bands (ev):

   -11.8467 -11.7821 -11.7821 -11.7610 -11.7610 -11.6468 -11.6416 -11.6243
   -11.6242 -11.6166 -11.6064 -11.5953 -11.5913 -11.4941 -11.4941 -11.3937
   -11.2894 -11.2325 -11.1547 -11.0809 -11.0800 -11.0765 -11.0740 -11.0740
   -11.0717 -11.0715 -11.0714 -11.0481 -11.0481 -11.0416 -10.9709 -10.9709
   -10.9350 -10.9160 -10.9118 -10.9030 -10.9029 -10.8874 -10.8874 -10.8688
   -10.8185 -10.8185 -10.8167 -10.8128 -10.8128 -10.8055 -10.8038 -10.8037
   -10.8019 -10.7854 -10.7854 -10.7813 -10.7754 -10.7730 -10.7728 -10.7712
   -10.7711 -10.7666 -10.7666 -10.7625 -10.7611 -10.7607 -10.7607 -10.7597
   -10.7574 -10.7521 -10.7488 -10.7488 -10.7472 -10.7458 -10.7458 -10.7443
   -10.7316 -10.7316 -10.7303 -10.7303 -10.7300 -10.7293 -10.7293 -10.7292
    -9.5470  -8.9373  -8.9372  -8.7345  -8.5731  -8.5731  -8.4293  -8.4293
    -8.2004  -8.1643  -8.1643  -7.9258  -7.8940  -7.8291  -7.7018  -7.6135
    -7.5976  -7.4036  -7.3024  -6.9055  -6.9055  -6.6794  -6.6197  -6.6197
    -6.6129  -6.6003  -6.5277  -6.3511  -6.3511  -6.2925  -6.2925  -6.2652
     1.0404   1.2775   1.4526   1.5098   2.0655   2.0655   2.2642   2.2642
     2.4345   2.4345   2.9559   2.9839   2.9839   3.0133   3.1722   3.7098
     3.7098   3.9006   3.9006   4.4949   4.4960   4.7043   4.8536   4.9094
     4.9095   5.1439   5.1439   5.1504   5.1504   5.1828   5.2187   5.2187
     5.2367   5.2772   5.3143   5.3308   5.3747   5.6728   5.7213   6.0021
     6.1617   6.1981   6.2326   6.3252   6.3433   6.4747   6.4747   6.5154
     6.5900   6.6756   6.6962   6.7859   6.7860   7.0005   7.0176   7.0176
     7.0775   7.1660   7.3013   7.3571   7.4114   7.4114   7.4411   7.4411
     7.5236   7.5236   7.6814   7.6814   7.7834   7.7834   7.9100   7.9100
     7.9812   8.0693   8.0775   8.0877   8.1347   8.1347   8.1420   8.1632
     8.2064   8.2064   8.2089   8.2697   8.3073   8.3454   8.3550   8.3587
     8.3827   8.3827   8.4173   8.4195   8.4195   8.5267   8.5267   8.9881
    11.1452  13.1850  13.1850  13.6761  13.8227  13.8400  13.8970  13.9641
    13.9641  14.0313  14.7178  14.7178  15.1127  15.1127  15.1842  15.6020
    15.8704  15.8894  16.4437  16.4438  16.5048  16.5048  16.7579  16.7615
    17.1593  17.1593  17.3772  17.3772  17.7315  17.7728  17.9189  18.3598
    18.5968  18.6879  19.0171  19.0171  19.0982  19.0982  19.3244  19.3244
    19.3340  19.3340  19.3566  19.4341  19.5735  19.5962  19.7170  19.8515

          k =-0.1250 0.1250-0.6191 ( 31097 PWs)   bands (ev):

   -11.7354 -11.6786 -11.6786 -11.6440 -11.6440 -11.6131 -11.6057 -11.6057
   -11.5312 -11.5250 -11.5250 -11.5215 -11.4946 -11.4601 -11.4502 -11.4355
   -11.3833 -11.2977 -11.2773 -11.2703 -11.2624 -11.2454 -11.1552 -11.1552
   -11.1259 -11.1258 -11.1009 -11.1009 -11.0306 -11.0306 -11.0215 -10.9871
   -10.8919 -10.8776 -10.8756 -10.8747 -10.8742 -10.8742 -10.8652 -10.8651
   -10.8383 -10.8383 -10.8356 -10.8351 -10.8351 -10.8265 -10.8234 -10.8206
   -10.8073 -10.7958 -10.7825 -10.7819 -10.7819 -10.7806 -10.7806 -10.7790
   -10.7787 -10.7773 -10.7740 -10.7740 -10.7722 -10.7706 -10.7706 -10.7694
   -10.7663 -10.7643 -10.7594 -10.7594 -10.7547 -10.7544 -10.7544 -10.7539
   -10.7538 -10.7527 -10.7486 -10.7486 -10.7476 -10.7460 -10.7460 -10.7447
    -9.3859  -9.1176  -8.7759  -8.7759  -8.5998  -8.5998  -8.3957  -8.3957
    -8.2427  -8.2427  -8.0805  -7.9900  -7.8707  -7.8462  -7.3636  -7.3165
    -7.2676  -7.1775  -7.0871  -6.9929  -6.9057  -6.8824  -6.7290  -6.7290
    -6.6270  -6.5246  -6.5246  -6.5239  -6.5239  -6.4405  -6.4043  -6.4043
     1.0409   1.0983   1.9262   1.9934   2.1762   2.1762   2.2520   2.2520
     2.4991   2.5935   2.7510   2.7510   2.9483   2.9483   3.8748   3.9270
     3.9270   4.0543   4.0543   4.3442   4.3442   4.4493   4.4493   4.6606
     4.6935   4.9417   5.0219   5.0229   5.3392   5.4645   5.4993   5.5144
     5.5637   5.5914   5.6104   5.6104   5.6664   5.6664   5.6813   5.7686
     5.8465   5.9237   6.0154   6.0241   6.1635   6.1635   6.2704   6.2704
     6.2800   6.3823   6.5009   6.5379   6.7016   6.7084   6.7264   6.7498
     6.9647   6.9722   7.2657   7.2657   7.4696   7.4696   7.5227   7.5227
     7.5730   7.5730   7.6589   7.6589   7.7624   7.7624   7.8300   7.8300
     8.0477   8.0477   8.0696   8.1280   8.2152   8.2196   8.2196   8.2376
     8.2449   8.2460   8.2838   8.2981   8.3223   8.3223   8.3403   8.3644
     8.4034   8.4034   8.4136   8.4156   8.4673   8.4673   8.4986   8.7893
    12.1697  13.1725  13.7080  13.7080  13.8516  13.9050  13.9794  13.9985
    14.2588  14.2588  14.4202  14.4202  14.8440  14.8440  15.5505  15.7254
    16.7617  16.7933  17.2394  17.2394  17.2556  17.2556  17.3518  17.3524
    17.5778  17.5778  17.6190  17.6576  17.6576  17.7603  17.7751  17.7912
    17.8266  17.8540  18.2785  18.2785  18.3278  18.3278  18.7280  18.7280
    18.8026  18.8026  19.0090  19.0793  19.3913  19.5110  19.7703  19.9272

          k =-0.1250 0.3750-0.1238 ( 31044 PWs)   bands (ev):

   -11.8656 -11.8291 -11.8268 -11.7817 -11.7810 -11.7791 -11.7761 -11.7745
   -11.7172 -11.7094 -11.6829 -11.6734 -11.6060 -11.5556 -11.3792 -11.2694
   -11.1944 -11.1888 -11.0880 -11.0854 -11.0850 -11.0493 -10.9928 -10.9773
   -10.9752 -10.9749 -10.9717 -10.9707 -10.9691 -10.9679 -10.9624 -10.9618
   -10.9447 -10.9346 -10.9344 -10.9291 -10.9253 -10.9189 -10.9048 -10.8878
   -10.8211 -10.8207 -10.8191 -10.8183 -10.8182 -10.8178 -10.8169 -10.8161
   -10.8149 -10.8027 -10.7852 -10.7816 -10.7731 -10.7723 -10.7670 -10.7636
   -10.7605 -10.7603 -10.7589 -10.7586 -10.7586 -10.7580 -10.7577 -10.7489
   -10.7238 -10.7192 -10.7189 -10.7169 -10.7165 -10.7163 -10.7160 -10.7159
   -10.7150 -10.7137 -10.7131 -10.7130 -10.7121 -10.7111 -10.7097 -10.7077
    -9.5220  -9.3252  -8.9051  -8.6483  -8.5460  -8.3301  -8.3186  -8.2962
    -8.2697  -8.2003  -8.0543  -8.0446  -8.0180  -8.0032  -7.9014  -7.8589
    -7.6354  -7.5182  -7.3490  -7.1940  -7.1347  -6.8365  -6.4445  -6.4045
    -6.3977  -6.3498  -6.3403  -6.3255  -6.3107  -6.2594  -6.2451  -6.2412
     1.2579   1.3267   1.4845   1.6348   1.6673   1.6942   1.8234   1.8657
     2.2389   2.2692   2.4809   2.8737   3.1584   3.4313   3.7476   3.7962
     4.0304   4.2067   4.2127   4.2569   4.2635   4.2754   4.4828   4.6378
     4.7780   4.8594   4.8729   5.0938   5.1234   5.1593   5.1983   5.2808
     5.3650   5.3698   5.4295   5.5223   5.7075   5.7548   5.8106   5.8717
     6.0198   6.0626   6.2903   6.3120   6.3145   6.4940   6.6036   6.6629
     6.8398   6.9916   7.0107   7.1708   7.1993   7.2239   7.2658   7.2923
     7.3447   7.3951   7.4587   7.4765   7.4886   7.5282   7.6864   7.7360
     7.7442   7.7561   7.7963   7.8122   7.8290   7.8322   7.8436   7.8603
     7.8815   7.8912   7.8927   7.9099   8.0144   8.0169   8.0218   8.0343
     8.0467   8.0875   8.1302   8.1777   8.2249   8.2280   8.2633   8.2804
     8.3135   8.3870   8.4011   8.4090   8.4301   8.4923   8.7287   8.9458
    11.0460  11.9408  13.0218  13.2770  13.6884  13.7124  14.0264  14.1322
    14.2694  14.5016  14.6600  14.6972  14.7519  14.8466  15.2754  15.2936
    15.4520  15.5636  15.6941  15.8444  16.0783  16.1278  16.2503  16.2785
    17.0464  17.1382  17.4478  17.5401  17.6606  17.7183  17.9028  18.3472
    19.2685  19.4290  19.5098  19.5122  19.5307  19.5549  19.5550  19.6115
    19.6452  19.7534  19.7630  19.7682  19.7866  19.8296  19.9684  19.9861

          k =-0.1250 0.3750-0.3715 ( 31056 PWs)   bands (ev):

   -11.8078 -11.7659 -11.7641 -11.7319 -11.7146 -11.7145 -11.7124 -11.7071
   -11.6453 -11.6367 -11.6272 -11.6271 -11.5548 -11.5176 -11.3569 -11.2958
   -11.2345 -11.2343 -11.1663 -11.1292 -11.1212 -11.0795 -11.0769 -11.0765
   -11.0764 -11.0756 -11.0734 -11.0689 -11.0680 -11.0217 -10.9907 -10.9537
   -10.9293 -10.9178 -10.9148 -10.9090 -10.9033 -10.8936 -10.8747 -10.8684
   -10.8179 -10.8161 -10.8115 -10.8112 -10.8110 -10.8104 -10.8071 -10.8069
   -10.8041 -10.7990 -10.7829 -10.7792 -10.7775 -10.7725 -10.7712 -10.7709
   -10.7653 -10.7648 -10.7638 -10.7607 -10.7605 -10.7586 -10.7567 -10.7566
   -10.7550 -10.7530 -10.7526 -10.7520 -10.7494 -10.7483 -10.7463 -10.7456
   -10.7315 -10.7315 -10.7310 -10.7305 -10.7299 -10.7295 -10.7285 -10.7282
    -9.4432  -9.2359  -8.7980  -8.7026  -8.6098  -8.5403  -8.4255  -8.3171
    -8.1839  -8.1602  -8.1254  -8.0532  -7.9010  -7.8473  -7.8313  -7.5310
    -7.4584  -7.4015  -7.2060  -7.0888  -7.0498  -6.7714  -6.6031  -6.5565
    -6.4694  -6.4606  -6.4542  -6.4047  -6.3979  -6.3467  -6.3068  -6.2927
     1.2545   1.4254   1.5564   1.6718   1.7027   1.7285   1.7955   2.0807
     2.4404   2.7149   2.7284   2.8785   3.0678   3.1658   3.7598   3.8308
     4.1303   4.2213   4.3538   4.4016   4.4487   4.5332   4.5579   4.8055
     4.9198   4.9382   4.9663   5.0424   5.0509   5.1161   5.1351   5.1902
     5.2516   5.2519   5.2588   5.3234   5.4571   5.4689   5.7078   5.7120
     5.7901   6.1296   6.1782   6.3201   6.3522   6.4675   6.6013   6.6394
     6.6554   6.6627   6.8776   6.9878   7.0403   7.0821   7.1396   7.1643
     7.2127   7.2366   7.2630   7.3670   7.4145   7.4413   7.5111   7.5356
     7.5769   7.6666   7.6835   7.7034   7.7236   7.7668   7.8139   7.8644
     7.9070   7.9853   8.0001   8.0197   8.0321   8.0582   8.0623   8.1002
     8.1621   8.2055   8.2207   8.2329   8.2816   8.3356   8.3491   8.3499
     8.3577   8.3997   8.4056   8.4083   8.4731   8.5297   8.7209   8.8984
    11.6090  12.3509  13.2983  13.4831  13.9055  13.9452  14.0245  14.1380
    14.2010  14.3667  14.3809  14.5776  14.6836  14.9782  15.4107  15.5549
    15.9832  16.0719  16.2038  16.3284  16.5466  16.5874  16.6784  16.6949
    17.2217  17.3267  17.4835  17.5777  17.7588  17.8157  17.9609  18.3031
    18.5615  18.7600  18.8132  18.9003  18.9981  19.0950  19.1199  19.1546
    19.3526  19.4279  19.4487  19.4876  19.5494  19.5974  19.8523  20.1311

          k =-0.1250 0.3750-0.6191 ( 31073 PWs)   bands (ev):

   -11.7132 -11.6816 -11.6694 -11.6572 -11.6551 -11.6075 -11.6018 -11.5895
   -11.5819 -11.5591 -11.5292 -11.5134 -11.5056 -11.4968 -11.4330 -11.3529
   -11.3412 -11.3001 -11.2447 -11.2444 -11.2396 -11.2063 -11.1951 -11.1931
   -11.1897 -11.1822 -11.1341 -11.0851 -11.0550 -11.0278 -10.9731 -10.9650
   -10.8893 -10.8829 -10.8783 -10.8770 -10.8704 -10.8666 -10.8644 -10.8599
   -10.8394 -10.8379 -10.8352 -10.8311 -10.8292 -10.8285 -10.8282 -10.8225
   -10.8024 -10.7938 -10.7933 -10.7882 -10.7833 -10.7816 -10.7800 -10.7763
   -10.7760 -10.7759 -10.7750 -10.7724 -10.7723 -10.7702 -10.7693 -10.7658
   -10.7657 -10.7625 -10.7611 -10.7608 -10.7574 -10.7552 -10.7529 -10.7520
   -10.7517 -10.7515 -10.7511 -10.7504 -10.7489 -10.7487 -10.7451 -10.7445
    -9.2869  -9.0814  -9.0422  -8.8724  -8.6378  -8.4705  -8.3885  -8.2585
    -8.2446  -8.1213  -8.0292  -7.9794  -7.9396  -7.8359  -7.5830  -7.4244
    -7.1690  -7.1633  -6.9619  -6.8977  -6.8842  -6.8722  -6.8346  -6.6861
    -6.6695  -6.6666  -6.6486  -6.4923  -6.4495  -6.3992  -6.3831  -6.3705
     1.2561   1.2941   1.6668   1.6707   1.9554   2.0609   2.1672   2.3084
     2.3998   2.4462   2.6953   2.8238   3.2811   3.6690   3.6725   4.0124
     4.2513   4.2762   4.2888   4.4302   4.4495   4.5807   4.6177   4.6844
     4.7318   4.7323   4.8436   4.9642   5.0378   5.0399   5.0737   5.2160
     5.2431   5.4091   5.5487   5.5968   5.6077   5.6605   5.7433   5.8034
     5.8150   5.9115   5.9909   6.0123   6.1079   6.1114   6.1915   6.3678
     6.3724   6.4963   6.6834   6.7233   6.8946   6.9633   6.9857   7.0043
     7.0564   7.1826   7.2278   7.3012   7.3110   7.3185   7.3228   7.4855
     7.4960   7.5518   7.5742   7.6431   7.6971   7.8543   7.8565   7.8595
     7.8953   7.9233   8.0401   8.0604   8.0828   8.1525   8.2022   8.2407
     8.2551   8.2669   8.2877   8.3085   8.3297   8.3433   8.3585   8.3609
     8.4335   8.4622   8.5089   8.5101   8.5182   8.5206   8.6526   8.7584
    12.4596  13.0060  13.3505  13.7184  13.7225  13.7622  13.9586  14.1149
    14.1364  14.2393  14.3028  14.5740  15.0059  15.3255  15.3825  15.6116
    16.8417  16.9002  17.0445  17.0681  17.2801  17.3082  17.3309  17.3438
    17.5357  17.5604  17.6366  17.7208  17.7304  17.7661  17.7951  17.8554
    17.8627  17.9739  18.0057  18.1247  18.3676  18.3823  18.6031  18.6280
    18.8778  18.9763  19.1502  19.2589  19.2797  19.4889  19.7843  20.1352

          k =-0.3750 0.3750-0.1238 ( 31052 PWs)   bands (ev):

   -11.8460 -11.8460 -11.8332 -11.8295 -11.8260 -11.7685 -11.7685 -11.7372
   -11.7134 -11.7134 -11.6814 -11.6765 -11.5157 -11.4314 -11.4314 -11.3271
   -11.2374 -11.2358 -11.1864 -11.1864 -10.9905 -10.9784 -10.9784 -10.9774
   -10.9743 -10.9732 -10.9622 -10.9622 -10.9582 -10.9572 -10.9488 -10.9488
   -10.9460 -10.9405 -10.9390 -10.9390 -10.9160 -10.9084 -10.9084 -10.8974
   -10.8220 -10.8220 -10.8210 -10.8205 -10.8182 -10.8178 -10.8178 -10.8174
   -10.8090 -10.7982 -10.7982 -10.7907 -10.7657 -10.7655 -10.7631 -10.7631
   -10.7621 -10.7610 -10.7610 -10.7578 -10.7575 -10.7574 -10.7574 -10.7531
   -10.7210 -10.7203 -10.7203 -10.7192 -10.7190 -10.7159 -10.7159 -10.7155
   -10.7134 -10.7134 -10.7124 -10.7121 -10.7105 -10.7092 -10.7084 -10.7084
    -9.4141  -9.2036  -9.2036  -8.9707  -8.3195  -8.2975  -8.2975  -8.1999
    -8.1693  -8.1693  -7.9197  -7.9197  -7.8859  -7.8775  -7.8555  -7.8526
    -7.8439  -7.8320  -7.5484  -7.5484  -6.7890  -6.5347  -6.5346  -6.4776
    -6.4470  -6.4215  -6.4215  -6.3327  -6.2607  -6.2419  -6.2216  -6.2215
     1.3499   1.4771   1.5401   1.5401   1.5810   1.7991   1.8985   1.8985
     2.1613   2.1613   2.3171   2.3246   3.8013   3.8338   3.8338   3.8608
     3.8608   3.8972   4.3311   4.3563   4.3707   4.4004   4.4178   4.4178
     4.5919   4.5919   4.5992   4.6539   5.1243   5.1888   5.2457   5.2457
     5.4501   5.6953   5.6953   5.6975   5.6975   5.7931   5.9748   6.0239
     6.2259   6.2259   6.4182   6.4203   6.4750   6.5066   6.5100   6.6434
     6.6680   6.6680   6.8087   6.9667   6.9667   6.9748   6.9748   7.3847
     7.4283   7.4616   7.4616   7.4703   7.6214   7.7403   7.7500   7.7500
     7.7677   7.7685   7.7815   7.7815   7.8478   7.8478   7.8995   7.9140
     7.9171   7.9171   7.9199   7.9460   7.9509   7.9578   7.9933   7.9933
     8.0539   8.0951   8.1094   8.1094   8.1294   8.2221   8.2342   8.2342
     8.3136   8.3665   8.3665   8.3709   8.5206   8.6559   8.6559   8.8381
    11.5362  12.2611  12.2611  12.7567  14.0043  14.1731  14.1740  14.1740
    14.4771  14.4920  14.4920  14.5131  14.6093  15.0364  15.0364  15.2786
    15.6567  15.7169  15.8769  15.8769  15.9716  15.9716  16.0944  16.1597
    16.8589  16.8589  16.9824  17.0856  18.3324  18.3324  18.3660  18.9198
    19.0827  19.2945  19.3073  19.3501  19.3614  19.3614  19.3711  19.3711
    19.7387  19.7821  19.7821  19.8073  19.8148  20.0884  20.1226  20.1581

          k =-0.3750 0.3750-0.3715 ( 31074 PWs)   bands (ev):

   -11.7822 -11.7821 -11.7770 -11.7648 -11.7638 -11.7160 -11.7160 -11.6818
   -11.6415 -11.6415 -11.6032 -11.5985 -11.4736 -11.4006 -11.4006 -11.3130
   -11.2974 -11.2932 -11.2448 -11.2448 -11.0799 -11.0780 -11.0780 -11.0780
   -11.0731 -11.0700 -11.0700 -11.0678 -11.0161 -10.9571 -10.9570 -10.9546
   -10.9284 -10.9216 -10.9216 -10.9215 -10.8898 -10.8787 -10.8787 -10.8700
   -10.8176 -10.8176 -10.8154 -10.8142 -10.8076 -10.8076 -10.8065 -10.8061
   -10.8048 -10.7948 -10.7948 -10.7878 -10.7734 -10.7697 -10.7697 -10.7664
   -10.7648 -10.7635 -10.7605 -10.7605 -10.7600 -10.7588 -10.7588 -10.7570
   -10.7553 -10.7553 -10.7534 -10.7531 -10.7493 -10.7471 -10.7471 -10.7467
   -10.7322 -10.7321 -10.7321 -10.7312 -10.7288 -10.7287 -10.7287 -10.7287
    -9.3300  -9.1093  -9.1093  -8.8690  -8.6515  -8.5257  -8.5257  -8.3551
    -8.0357  -8.0357  -7.8390  -7.7902  -7.7902  -7.7759  -7.7293  -7.6712
    -7.6281  -7.6030  -7.4072  -7.4072  -6.7364  -6.6564  -6.6236  -6.5790
    -6.5790  -6.5132  -6.5132  -6.3539  -6.3472  -6.3103  -6.2893  -6.2893
     1.4712   1.4797   1.5227   1.5983   1.5983   1.8825   1.8825   2.0389
     2.2619   2.4351   2.4351   2.7515   3.4711   3.6509   3.6509   3.9223
     3.9271   3.9271   4.0926   4.3959   4.6654   4.6675   4.6934   4.6934
     4.8690   4.8690   4.9250   4.9482   5.0809   5.0809   5.2598   5.3208
     5.3428   5.4265   5.4265   5.5446   5.6595   5.6595   5.6600   5.8648
     5.9543   5.9543   6.0356   6.2151   6.2681   6.3677   6.4141   6.4879
     6.5162   6.5162   6.7492   6.8556   6.8556   6.9428   6.9428   7.1067
     7.3542   7.3646   7.3661   7.4986   7.4986   7.5628   7.5787   7.5787
     7.6159   7.6262   7.6262   7.7112   7.7846   7.7846   7.8099   7.8674
     7.8674   7.9258   7.9378   7.9933   8.0491   8.0783   8.0783   8.1340
     8.1368   8.2314   8.2386   8.2386   8.2555   8.3286   8.3351   8.3351
     8.3637   8.3706   8.3706   8.3875   8.6119   8.7001   8.7001   8.8384
    11.9857  12.6019  12.6019  13.0171  14.0496  14.1472  14.2092  14.2092
    14.2288  14.4501  14.4501  14.5820  14.7874  15.0712  15.0712  15.4052
    16.1455  16.2202  16.3596  16.3597  16.4397  16.4397  16.5530  16.5930
    17.0932  17.0932  17.1524  17.2662  18.2682  18.2682  18.3084  18.6031
    18.6121  18.6623  18.7420  18.7420  18.8096  18.8584  18.8584  18.9089
    19.5825  19.5825  19.6654  19.7673  19.8701  19.9578  19.9606  19.9607

          k =-0.3750 0.3750-0.6191 ( 31080 PWs)   bands (ev):

   -11.6919 -11.6824 -11.6824 -11.6780 -11.6597 -11.6503 -11.6503 -11.6127
   -11.5226 -11.5226 -11.4573 -11.4533 -11.4452 -11.4297 -11.4297 -11.3976
   -11.3856 -11.3603 -11.3115 -11.3115 -11.2681 -11.2648 -11.2426 -11.2426
   -11.1284 -11.0798 -11.0798 -11.0755 -11.0428 -11.0022 -11.0022 -10.9639
   -10.8896 -10.8854 -10.8854 -10.8838 -10.8622 -10.8578 -10.8578 -10.8567
   -10.8417 -10.8403 -10.8403 -10.8360 -10.8226 -10.8226 -10.8224 -10.8189
   -10.7978 -10.7935 -10.7899 -10.7899 -10.7891 -10.7890 -10.7886 -10.7837
   -10.7753 -10.7726 -10.7726 -10.7702 -10.7701 -10.7695 -10.7670 -10.7670
   -10.7645 -10.7621 -10.7621 -10.7578 -10.7571 -10.7536 -10.7536 -10.7525
   -10.7515 -10.7515 -10.7508 -10.7506 -10.7500 -10.7475 -10.7474 -10.7468
    -9.1754  -8.9539  -8.9539  -8.9501  -8.7571  -8.7571  -8.7130  -8.5373
    -7.8637  -7.8637  -7.7761  -7.7623  -7.7623  -7.7446  -7.5710  -7.4948
    -7.3355  -7.2957  -7.1527  -7.1527  -6.9674  -6.9313  -6.8484  -6.8484
    -6.6309  -6.4875  -6.4651  -6.4651  -6.3853  -6.3853  -6.3824  -6.3772
     1.4432   1.4553   1.7138   1.7138   1.8087   1.8251   1.8251   2.0911
     2.4663   2.8642   2.8642   2.9792   3.3006   3.3006   3.3158   3.7540
     4.1413   4.1547   4.1548   4.4812   4.6669   4.6669   4.7657   4.7851
     5.0166   5.0166   5.0685   5.0685   5.1934   5.1937   5.3787   5.3787
     5.4050   5.4639   5.5131   5.5449   5.6312   5.7312   5.7340   5.7340
     5.8592   5.9110   5.9346   5.9381   5.9381   6.0492   6.1348   6.1348
     6.1392   6.3831   6.4090   6.5236   6.5656   6.5656   6.6763   6.6763
     7.1035   7.1678   7.3829   7.3829   7.4446   7.4446   7.5072   7.5812
     7.6021   7.6704   7.6851   7.7492   7.7492   7.7941   7.7941   7.8948
     7.9527   7.9527   7.9796   7.9996   8.1176   8.1176   8.1559   8.2133
     8.2601   8.2601   8.2621   8.2844   8.3169   8.3277   8.3277   8.3491
     8.5317   8.5317   8.5350   8.5378   8.6278   8.6648   8.6648   8.7431
    12.7008  13.1486  13.1486  13.4152  13.4716  13.7294  13.7294  13.7924
    14.4976  14.6190  14.8097  14.8097  15.0338  15.0338  15.1812  15.4092
    16.9426  17.0360  17.1549  17.1549  17.1755  17.1755  17.2804  17.2903
    17.4415  17.4872  17.4872  17.5863  17.8850  17.9014  17.9014  17.9224
    17.9488  17.9706  18.0542  18.0542  18.0599  18.0599  18.1851  18.2130
    19.4862  19.4862  19.6508  19.6751  19.6751  19.8323  19.9244  19.9861

     highest occupied, lowest unoccupied level (ev):     9.0839   10.3804

!    total energy              =   -3638.20842839 Ry
     Harris-Foulkes estimate   =   -3638.20842839 Ry
     estimated scf accuracy    <          1.7E-09 Ry

     The total energy is the sum of the following terms:

     one-electron contribution =   -1037.57231537 Ry
     hartree contribution      =     840.94544382 Ry
     xc contribution           =   -1001.87660291 Ry
     ewald contribution        =   -2439.70495393 Ry

     convergence has been achieved in  10 iterations

     Forces acting on atoms (Ry/au):

     atom    1 type  1   force =     0.00000000    0.00000000    0.00000000
     atom    2 type  1   force =     0.00000000    0.00000000    0.00000000
     atom    3 type  1   force =     0.00000000    0.00000000    0.00000000
     atom    4 type  1   force =     0.00000000    0.00000000    0.00000000
     atom    5 type  1   force =     0.00000000    0.00000000    0.00000000
     atom    6 type  1   force =     0.00000000    0.00000000    0.00000000
     atom    7 type  1   force =     0.00000000    0.00000000    0.00000000
     atom    8 type  1   force =     0.00000000    0.00000000    0.00000000
     atom    9 type  1   force =    -0.00000404   -0.00000404   -0.00000638
     atom   10 type  1   force =     0.00000885   -0.00000885   -0.00001035
     atom   11 type  1   force =    -0.00000885    0.00000885   -0.00001035
     atom   12 type  1   force =     0.00000404    0.00000404   -0.00000638
     atom   13 type  1   force =    -0.00000404   -0.00000404    0.00000638
     atom   14 type  1   force =     0.00000885   -0.00000885    0.00001035
     atom   15 type  1   force =    -0.00000885    0.00000885    0.00001035
     atom   16 type  1   force =     0.00000404    0.00000404    0.00000638
     atom   17 type  2   force =    -0.00337846   -0.00337846    0.00000000
     atom   18 type  2   force =    -0.00337789   -0.00337829    0.00000000
     atom   19 type  2   force =    -0.00337829   -0.00337789   -0.00000000
     atom   20 type  2   force =    -0.00337845   -0.00337845    0.00000000
     atom   21 type  2   force =    -0.00337842   -0.00337842   -0.00000000
     atom   22 type  2   force =    -0.00337817   -0.00337824    0.00000000
     atom   23 type  2   force =    -0.00337824   -0.00337817   -0.00000000
     atom   24 type  2   force =    -0.00337875   -0.00337875    0.00000000
     atom   25 type  2   force =     0.00337845    0.00337845    0.00000000
     atom   26 type  2   force =     0.00337829    0.00337789   -0.00000000
     atom   27 type  2   force =     0.00337789    0.00337829    0.00000000
     atom   28 type  2   force =     0.00337846    0.00337846    0.00000000
     atom   29 type  2   force =     0.00337875    0.00337875    0.00000000
     atom   30 type  2   force =     0.00337824    0.00337817   -0.00000000
     atom   31 type  2   force =     0.00337817    0.00337824    0.00000000
     atom   32 type  2   force =     0.00337842    0.00337842   -0.00000000
     atom   33 type  2   force =     0.00337803   -0.00337845   -0.00000039
     atom   34 type  2   force =     0.00337808   -0.00337808   -0.00000043
     atom   35 type  2   force =     0.00337835   -0.00337835   -0.00000044
     atom   36 type  2   force =     0.00337845   -0.00337803   -0.00000039
     atom   37 type  2   force =     0.00337803   -0.00337845    0.00000039
     atom   38 type  2   force =     0.00337808   -0.00337808    0.00000043
     atom   39 type  2   force =     0.00337835   -0.00337835    0.00000044
     atom   40 type  2   force =     0.00337845   -0.00337803    0.00000039
     atom   41 type  2   force =    -0.00337845    0.00337803   -0.00000039
     atom   42 type  2   force =    -0.00337835    0.00337835   -0.00000044
     atom   43 type  2   force =    -0.00337808    0.00337808   -0.00000043
     atom   44 type  2   force =    -0.00337803    0.00337845   -0.00000039
     atom   45 type  2   force =    -0.00337845    0.00337803    0.00000039
     atom   46 type  2   force =    -0.00337835    0.00337835    0.00000044
     atom   47 type  2   force =    -0.00337808    0.00337808    0.00000043
     atom   48 type  2   force =    -0.00337803    0.00337845    0.00000039

     Total force =     0.027026     Total SCF correction =     0.000066


     entering subroutine stress ...

          total   stress  (Ry/bohr**3)                   (kbar)     P=   -4.34
  -0.00005094   0.00000000   0.00000000         -7.49      0.00      0.00
   0.00000000  -0.00005094   0.00000000          0.00     -7.49      0.00
   0.00000000   0.00000000   0.00001331          0.00      0.00      1.96


     init_run     :    334.18s CPU    335.16s WALL (       1 calls)
     electrons    :  11411.44s CPU  11447.42s WALL (       1 calls)
     forces       :    256.50s CPU    256.79s WALL (       1 calls)
     stress       :    337.50s CPU    338.02s WALL (       1 calls)

     Called by init_run:
     wfcinit      :    314.16s CPU    314.94s WALL (       1 calls)
     potinit      :      2.25s CPU      2.27s WALL (       1 calls)

     Called by electrons:
     c_bands      :  10457.56s CPU  10486.55s WALL (      10 calls)
     sum_band     :    881.40s CPU    886.69s WALL (      10 calls)
     v_of_rho     :      5.74s CPU      5.91s WALL (      11 calls)
     newd         :     72.53s CPU     74.18s WALL (      11 calls)
     mix_rho      :      0.87s CPU      0.90s WALL (      10 calls)

     Called by c_bands:
     init_us_2    :     13.17s CPU     13.21s WALL (     414 calls)
     cegterg      :  10430.35s CPU  10459.16s WALL (     180 calls)

     Called by sum_band:
     sum_band:bec :      0.66s CPU      0.64s WALL (     180 calls)
     addusdens    :    102.34s CPU    103.86s WALL (      10 calls)

     Called by *egterg:
     h_psi        :   3985.77s CPU   3999.63s WALL (     877 calls)
     s_psi        :   1577.20s CPU   1577.55s WALL (     877 calls)
     g_psi        :      3.72s CPU      3.75s WALL (     679 calls)
     cdiaghg      :    767.68s CPU    767.76s WALL (     859 calls)

     Called by h_psi:
     add_vuspsi   :   1581.02s CPU   1581.43s WALL (     877 calls)

     General routines
     calbec       :   2338.61s CPU   2340.15s WALL (    1147 calls)
     fft          :      5.77s CPU      6.00s WALL (     197 calls)
     ffts         :      0.12s CPU      0.11s WALL (      21 calls)
     fftw         :    805.34s CPU    815.33s WALL (  292232 calls)
     interpolate  :      0.84s CPU      0.86s WALL (      21 calls)

     Parallel routines
     fft_scatter  :    130.43s CPU    132.87s WALL (  292450 calls)

     PWSCF        :     3h25m CPU        3h26m WALL


   This run was terminated on:  18:54: 8  12May2018            

=------------------------------------------------------------------------------=
   JOB DONE.
=------------------------------------------------------------------------------=
