
     Program PWSCF v.5.4.0 starts on 12May2018 at 18:54: 8 

     This program is part of the open-source Quantum ESPRESSO suite
     for quantum simulation of materials; please cite
         "P. Giannozzi et al., J. Phys.:Condens. Matter 21 395502 (2009);
          URL http://www.quantum-espresso.org", 
     in publications or presentations arising from this work. More details at
     http://www.quantum-espresso.org/quote

     Parallel version (MPI), running on     4 processors
     R & G space division:  proc/nbgrp/npool/nimage =       4
     Reading input from scf.in
Warning: card &IONS ignored
Warning: card     ION_DYNAMICS='DAMP' ignored
Warning: card     POT_EXTRAPOLATION='SECOND_ORDER' ignored
Warning: card     WFC_EXTRAPOLATION='SECOND_ORDER' ignored
Warning: card / ignored

     Current dimensions of program PWSCF are:
     Max number of different atomic species (ntypx) = 10
     Max number of k-points (npk) =  40000
     Max angular momentum in pseudopotentials (lmaxx) =  3
               file Sn.pbesol-dn-rrkjus.UPF: wavefunction(s)  5S 4D renormalized
               file O.pbesol-nl-rrkjus.UPF: wavefunction(s)  2S renormalized

     Subspace diagonalization in iterative solution of the eigenvalue problem:
     a serial algorithm will be used

     Found symmetry operation: I + ( -0.5000  0.0000  0.0000)
     This is a supercell, fractional translations are disabled

     Parallelization info
     --------------------
     sticks:   dense  smooth     PW     G-vecs:    dense   smooth      PW
     Min        3907    1563    421               247565    62609    8710
     Max        3908    1564    422               247568    62624    8711
     Sum       15629    6253   1685               990267   250473   34843



     bravais-lattice index     =            0
     lattice parameter (alat)  =      18.1000  a.u.
     unit-cell volume          =    3990.7157 (a.u.)^3
     number of atoms/cell      =           48
     number of atomic types    =            2
     number of electrons       =       416.00
     number of Kohn-Sham states=          256
     kinetic-energy cutoff     =      60.0000  Ry
     charge density cutoff     =     600.0000  Ry
     convergence threshold     =      2.0E-09
     mixing beta               =       0.7000
     number of iterations used =            8  plain     mixing
     Exchange-correlation      = PBESOL ( 1  4 10  8 0 0)

     celldm(1)=  18.100000  celldm(2)=   0.000000  celldm(3)=   0.000000
     celldm(4)=   0.000000  celldm(5)=   0.000000  celldm(6)=   0.000000

     crystal axes: (cart. coord. in units of alat)
               a(1) = (   1.000000   0.000000   0.000000 )  
               a(2) = (   0.000000   1.000000   0.000000 )  
               a(3) = (   0.000000   0.000000   0.673000 )  

     reciprocal axes: (cart. coord. in units 2 pi/alat)
               b(1) = (  1.000000  0.000000  0.000000 )  
               b(2) = (  0.000000  1.000000  0.000000 )  
               b(3) = (  0.000000  0.000000  1.485884 )  


     PseudoPot. # 1 for Sn read from file:
     /home/raja/pseudo/Sn.pbesol-dn-rrkjus.UPF
     MD5 check sum: b150398e14deaf400293d9009fcc5675
     Pseudo is Ultrasoft + core correction, Zval = 14.0
     Generated using "atomic" code by A. Dal Corso  v.5.4.0
     Using radial grid of 1243 points,  6 beta functions with: 
                l(1) =   0
                l(2) =   0
                l(3) =   1
                l(4) =   1
                l(5) =   2
                l(6) =   2
     Q(r) pseudized with 0 coefficients 


     PseudoPot. # 2 for  O read from file:
     /home/raja/pseudo/O.pbesol-nl-rrkjus.UPF
     MD5 check sum: c80495934389d02e713646931b6a7a51
     Pseudo is Ultrasoft + core correction, Zval =  6.0
     Generated using "atomic" code by A. Dal Corso  v.5.4.0
     Using radial grid of 1095 points,  4 beta functions with: 
                l(1) =   0
                l(2) =   0
                l(3) =   1
                l(4) =   1
     Q(r) pseudized with 0 coefficients 


     atomic species   valence    mass     pseudopotential
        Sn            14.00   118.71000     Sn( 1.00)
        O              6.00    15.99900      O( 1.00)

      8 Sym. Ops., with inversion, found



   Cartesian axes

     site n.     atom                  positions (alat units)
         1           Sn  tau(   1) = (   0.0000000   0.0000000   0.0000000  )
         2           Sn  tau(   2) = (   0.5000000   0.0000000   0.0000000  )
         3           Sn  tau(   3) = (   0.0000000   0.5000000   0.0000000  )
         4           Sn  tau(   4) = (   0.5000000   0.5000000   0.0000000  )
         5           Sn  tau(   5) = (   0.0000000   0.0000000   0.3365000  )
         6           Sn  tau(   6) = (   0.5000000   0.0000000   0.3365000  )
         7           Sn  tau(   7) = (   0.0000000   0.5000000   0.3365000  )
         8           Sn  tau(   8) = (   0.5000000   0.5000000   0.3365000  )
         9           Sn  tau(   9) = (   0.2500000   0.2500000   0.1682500  )
        10           Sn  tau(  10) = (   0.7500000   0.2500000   0.1682500  )
        11           Sn  tau(  11) = (   0.2500000   0.7500000   0.1682500  )
        12           Sn  tau(  12) = (   0.7500000   0.7500000   0.1682500  )
        13           Sn  tau(  13) = (   0.2500000   0.2500000   0.5047500  )
        14           Sn  tau(  14) = (   0.7500000   0.2500000   0.5047500  )
        15           Sn  tau(  15) = (   0.2500000   0.7500000   0.5047500  )
        16           Sn  tau(  16) = (   0.7500000   0.7500000   0.5047500  )
        17           O   tau(  17) = (   0.1535000   0.1535000   0.0000000  )
        18           O   tau(  18) = (   0.6535000   0.1535000   0.0000000  )
        19           O   tau(  19) = (   0.1535000   0.6535000   0.0000000  )
        20           O   tau(  20) = (   0.6535000   0.6535000   0.0000000  )
        21           O   tau(  21) = (   0.1535000   0.1535000   0.3365000  )
        22           O   tau(  22) = (   0.6535000   0.1535000   0.3365000  )
        23           O   tau(  23) = (   0.1535000   0.6535000   0.3365000  )
        24           O   tau(  24) = (   0.6535000   0.6535000   0.3365000  )
        25           O   tau(  25) = (   0.3465000   0.3465000   0.0000000  )
        26           O   tau(  26) = (   0.8465000   0.3465000   0.0000000  )
        27           O   tau(  27) = (   0.3465000   0.8465000   0.0000000  )
        28           O   tau(  28) = (   0.8465000   0.8465000   0.0000000  )
        29           O   tau(  29) = (   0.3465000   0.3465000   0.3365000  )
        30           O   tau(  30) = (   0.8465000   0.3465000   0.3365000  )
        31           O   tau(  31) = (   0.3465000   0.8465000   0.3365000  )
        32           O   tau(  32) = (   0.8465000   0.8465000   0.3365000  )
        33           O   tau(  33) = (   0.0965000   0.4035000   0.1682500  )
        34           O   tau(  34) = (   0.5965000   0.4035000   0.1682500  )
        35           O   tau(  35) = (   0.0965000   0.9035000   0.1682500  )
        36           O   tau(  36) = (   0.5965000   0.9035000   0.1682500  )
        37           O   tau(  37) = (   0.0965000   0.4035000   0.5047500  )
        38           O   tau(  38) = (   0.5965000   0.4035000   0.5047500  )
        39           O   tau(  39) = (   0.0965000   0.9035000   0.5047500  )
        40           O   tau(  40) = (   0.5965000   0.9035000   0.5047500  )
        41           O   tau(  41) = (   0.4035000   0.0965000   0.1682500  )
        42           O   tau(  42) = (   0.9035000   0.0965000   0.1682500  )
        43           O   tau(  43) = (   0.4035000   0.5965000   0.1682500  )
        44           O   tau(  44) = (   0.9035000   0.5965000   0.1682500  )
        45           O   tau(  45) = (   0.4035000   0.0965000   0.5047500  )
        46           O   tau(  46) = (   0.9035000   0.0965000   0.5047500  )
        47           O   tau(  47) = (   0.4035000   0.5965000   0.5047500  )
        48           O   tau(  48) = (   0.9035000   0.5965000   0.5047500  )

     number of k points=    18
                       cart. coord. in units 2pi/alat
        k(    1) = (   0.1250000   0.1250000   0.1238237), wk =   0.0833333
        k(    2) = (   0.1250000   0.1250000   0.3714710), wk =   0.0833333
        k(    3) = (   0.1250000   0.1250000   0.6191184), wk =   0.0833333
        k(    4) = (   0.1250000   0.3750000   0.1238237), wk =   0.1666667
        k(    5) = (   0.1250000   0.3750000   0.3714710), wk =   0.1666667
        k(    6) = (   0.1250000   0.3750000   0.6191184), wk =   0.1666667
        k(    7) = (   0.3750000   0.3750000   0.1238237), wk =   0.0833333
        k(    8) = (   0.3750000   0.3750000   0.3714710), wk =   0.0833333
        k(    9) = (   0.3750000   0.3750000   0.6191184), wk =   0.0833333
        k(   10) = (  -0.1250000   0.1250000  -0.1238237), wk =   0.0833333
        k(   11) = (  -0.1250000   0.1250000  -0.3714710), wk =   0.0833333
        k(   12) = (  -0.1250000   0.1250000  -0.6191184), wk =   0.0833333
        k(   13) = (  -0.1250000   0.3750000  -0.1238237), wk =   0.1666667
        k(   14) = (  -0.1250000   0.3750000  -0.3714710), wk =   0.1666667
        k(   15) = (  -0.1250000   0.3750000  -0.6191184), wk =   0.1666667
        k(   16) = (  -0.3750000   0.3750000  -0.1238237), wk =   0.0833333
        k(   17) = (  -0.3750000   0.3750000  -0.3714710), wk =   0.0833333
        k(   18) = (  -0.3750000   0.3750000  -0.6191184), wk =   0.0833333

     Dense  grid:   990267 G-vectors     FFT dimensions: ( 144, 144,  96)

     Smooth grid:   250473 G-vectors     FFT dimensions: (  90,  90,  64)

     Largest allocated arrays     est. size (Mb)     dimensions
        Kohn-Sham Wavefunctions        30.71 Mb     (    7861,  256)
        NL pseudopotentials            65.25 Mb     (    7861,  544)
        Each V/rho on FFT grid          7.59 Mb     (  497664)
        Each G-vector array             1.89 Mb     (  247567)
        G-vector shells                 0.34 Mb     (   44350)
     Largest temporary arrays     est. size (Mb)     dimensions
        Auxiliary wavefunctions       122.83 Mb     (    7861, 1024)
        Each subspace H/S matrix       16.00 Mb     (    1024, 1024)
        Each <psi_i|beta_j> matrix      2.12 Mb     (     544,  256)
        Arrays for rho mixing          60.75 Mb     (  497664,    8)

     Initial potential from superposition of free atoms

     starting charge  415.97986, renormalised to  416.00000
     Starting wfc are  272 randomized atomic wfcs

     total cpu time spent up to now is      342.8 secs

     per-process dynamical memory:   786.5 Mb

     Self-consistent Calculation

     iteration #  1     ecut=    60.00 Ry     beta=0.70
     Davidson diagonalization with overlap
     ethr =  1.00E-02,  avg # of iterations =  3.0

     total cpu time spent up to now is     1323.4 secs

     total energy              =   -3632.55804562 Ry
     Harris-Foulkes estimate   =   -3641.55634080 Ry
     estimated scf accuracy    <      11.99015622 Ry

     iteration #  2     ecut=    60.00 Ry     beta=0.70
     Davidson diagonalization with overlap
     ethr =  2.88E-03,  avg # of iterations =  3.7

     total cpu time spent up to now is     2660.3 secs

     total energy              =   -3635.43542620 Ry
     Harris-Foulkes estimate   =   -3642.13750677 Ry
     estimated scf accuracy    <      14.02345027 Ry

     iteration #  3     ecut=    60.00 Ry     beta=0.70
     Davidson diagonalization with overlap
     ethr =  2.88E-03,  avg # of iterations =  3.0

     total cpu time spent up to now is     3705.5 secs

     total energy              =   -3638.19297403 Ry
     Harris-Foulkes estimate   =   -3638.20061185 Ry
     estimated scf accuracy    <       0.04087717 Ry

     iteration #  4     ecut=    60.00 Ry     beta=0.70
     Davidson diagonalization with overlap
     ethr =  9.83E-06,  avg # of iterations =  8.9

     total cpu time spent up to now is     5401.6 secs

     total energy              =   -3638.20948683 Ry
     Harris-Foulkes estimate   =   -3638.20979407 Ry
     estimated scf accuracy    <       0.00096910 Ry

     iteration #  5     ecut=    60.00 Ry     beta=0.70
     Davidson diagonalization with overlap
     c_bands:  1 eigenvalues not converged
     ethr =  2.33E-07,  avg # of iterations =  6.1

     total cpu time spent up to now is     6497.2 secs

     total energy              =   -3638.20963430 Ry
     Harris-Foulkes estimate   =   -3638.20963385 Ry
     estimated scf accuracy    <       0.00006920 Ry

     iteration #  6     ecut=    60.00 Ry     beta=0.70
     Davidson diagonalization with overlap
     ethr =  1.66E-08,  avg # of iterations =  2.9

     total cpu time spent up to now is     7593.9 secs

     total energy              =   -3638.20964246 Ry
     Harris-Foulkes estimate   =   -3638.20965065 Ry
     estimated scf accuracy    <       0.00001739 Ry

     iteration #  7     ecut=    60.00 Ry     beta=0.70
     Davidson diagonalization with overlap
     ethr =  4.18E-09,  avg # of iterations =  2.9

     total cpu time spent up to now is     8617.6 secs

     total energy              =   -3638.20964661 Ry
     Harris-Foulkes estimate   =   -3638.20965004 Ry
     estimated scf accuracy    <       0.00000936 Ry

     iteration #  8     ecut=    60.00 Ry     beta=0.70
     Davidson diagonalization with overlap
     ethr =  2.25E-09,  avg # of iterations =  2.0

     total cpu time spent up to now is     9543.5 secs

     total energy              =   -3638.20964820 Ry
     Harris-Foulkes estimate   =   -3638.20964822 Ry
     estimated scf accuracy    <       0.00000005 Ry

     iteration #  9     ecut=    60.00 Ry     beta=0.70
     Davidson diagonalization with overlap
     ethr =  1.09E-11,  avg # of iterations =  3.0

     total cpu time spent up to now is    10994.9 secs

     total energy              =   -3638.20964823 Ry
     Harris-Foulkes estimate   =   -3638.20964825 Ry
     estimated scf accuracy    <       0.00000005 Ry

     iteration # 10     ecut=    60.00 Ry     beta=0.70
     Davidson diagonalization with overlap
     ethr =  1.09E-11,  avg # of iterations =  2.0

     total cpu time spent up to now is    11938.2 secs

     total energy              =   -3638.20964824 Ry
     Harris-Foulkes estimate   =   -3638.20964824 Ry
     estimated scf accuracy    <          2.1E-09 Ry

     iteration # 11     ecut=    60.00 Ry     beta=0.70
     Davidson diagonalization with overlap
     ethr =  4.96E-13,  avg # of iterations =  2.0

     total cpu time spent up to now is    12943.5 secs

     End of self-consistent calculation

          k = 0.1250 0.1250 0.1238 ( 31307 PWs)   bands (ev):

   -12.0179 -11.9570 -11.9570 -11.9391 -11.9391 -11.8328 -11.8225 -11.7997
   -11.7902 -11.7886 -11.7777 -11.7777 -11.7643 -11.6397 -11.6397 -11.3878
   -11.3666 -11.3422 -11.3188 -11.2619 -11.1340 -11.1340 -11.1160 -11.1159
   -11.1137 -11.1137 -11.1035 -11.1001 -11.0973 -11.0950 -11.0946 -11.0946
   -11.0920 -11.0762 -11.0723 -11.0650 -11.0650 -11.0559 -11.0559 -11.0081
   -10.9655 -10.9620 -10.9620 -10.9595 -10.9590 -10.9589 -10.9589 -10.9572
   -10.9567 -10.9327 -10.9327 -10.9233 -10.9204 -10.9180 -10.9180 -10.9155
   -10.9063 -10.9060 -10.9060 -10.9057 -10.9056 -10.9039 -10.9039 -10.8907
   -10.8744 -10.8664 -10.8664 -10.8652 -10.8652 -10.8634 -10.8627 -10.8611
   -10.8602 -10.8594 -10.8592 -10.8584 -10.8577 -10.8576 -10.8543 -10.8543
    -9.6992  -9.1245  -9.1245  -8.7833  -8.7833  -8.3983  -8.3741  -8.3741
    -8.3586  -8.2693  -8.2693  -8.0186  -8.0044  -7.9906  -7.9296  -7.9008
    -7.8975  -7.8640  -7.6228  -7.1263  -7.1262  -6.8006  -6.8006  -6.6321
    -6.5881  -6.5598  -6.5223  -6.3942  -6.3942  -6.3633  -6.3633  -6.3184
     0.9524   1.1026   1.1566   1.5395   1.9126   1.9126   2.0947   2.0947
     2.1042   2.1541   2.1541   2.8685   2.8685   3.1846   3.4239   3.5425
     3.5425   3.7218   3.7218   4.1117   4.1123   4.7054   4.8006   4.8123
     4.8123   4.8633   4.8824   4.9148   4.9148   5.0143   5.1265   5.1596
     5.3255   5.3825   5.4564   5.4564   5.7204   5.8143   5.8143   5.9757
     6.0299   6.0510   6.0510   6.0749   6.3533   6.4205   6.5131   6.5203
     6.5203   6.7082   6.7583   6.8805   6.8805   6.9483   7.0240   7.0913
     7.1655   7.2096   7.2096   7.2568   7.2883   7.2883   7.3648   7.3648
     7.6424   7.6603   7.6841   7.7111   7.7439   7.7440   7.7449   7.7734
     7.7734   7.7991   7.8246   7.9031   7.9031   7.9948   7.9948   8.0411
     8.0491   8.1121   8.1440   8.1541   8.1541   8.1732   8.1890   8.2064
     8.2559   8.2559   8.2856   8.3499   8.3499   8.4345   8.4345   8.9617
    10.1724  12.6452  12.6452  13.3066  13.4508  13.4508  13.4584  13.5604
    13.5909  14.4916  14.6854  14.7916  14.7916  14.9814  14.9814  15.0218
    15.1570  15.1573  15.7771  15.7771  15.8465  15.8465  16.1832  16.1914
    16.6972  16.6972  16.9698  16.9698  17.4980  17.6759  17.8993  18.5602
    18.8535  19.1654  19.2987  19.3808  19.3808  19.4640  19.4826  19.4979
    19.4979  19.5370  19.5370  19.5548  19.5815  19.5816  19.6037  19.6215

          k = 0.1250 0.1250 0.3715 ( 31318 PWs)   bands (ev):

   -11.9574 -11.8946 -11.8946 -11.8739 -11.8739 -11.7627 -11.7578 -11.7403
   -11.7403 -11.7308 -11.7234 -11.7128 -11.7062 -11.6138 -11.6138 -11.5162
   -11.4146 -11.3597 -11.2849 -11.2144 -11.2133 -11.2102 -11.2067 -11.2067
   -11.2048 -11.2038 -11.2037 -11.1827 -11.1827 -11.1761 -11.1093 -11.1093
   -11.0754 -11.0571 -11.0530 -11.0445 -11.0444 -11.0294 -11.0293 -11.0098
   -10.9614 -10.9614 -10.9607 -10.9559 -10.9559 -10.9487 -10.9471 -10.9471
   -10.9453 -10.9303 -10.9303 -10.9268 -10.9211 -10.9184 -10.9181 -10.9168
   -10.9168 -10.9124 -10.9124 -10.9087 -10.9074 -10.9066 -10.9066 -10.9052
   -10.9030 -10.8987 -10.8945 -10.8945 -10.8929 -10.8918 -10.8918 -10.8911
   -10.8774 -10.8774 -10.8761 -10.8761 -10.8759 -10.8752 -10.8752 -10.8751
    -9.6241  -9.0220  -9.0220  -8.8196  -8.6630  -8.6630  -8.5178  -8.5178
    -8.3003  -8.2592  -8.2592  -8.0299  -8.0041  -7.9358  -7.8032  -7.7179
    -7.7016  -7.5157  -7.4187  -7.0283  -7.0283  -6.8080  -6.7499  -6.7499
    -6.7434  -6.7307  -6.6600  -6.4880  -6.4880  -6.4309  -6.4309  -6.4051
     0.9444   1.1868   1.3638   1.4207   1.9653   1.9653   2.1638   2.1638
     2.3311   2.3311   2.8523   2.8811   2.8811   2.8976   3.0555   3.6223
     3.6223   3.8091   3.8091   4.4069   4.4074   4.6032   4.7576   4.8117
     4.8117   5.0482   5.0482   5.0483   5.0483   5.0860   5.1220   5.1221
     5.1402   5.1759   5.2125   5.2322   5.2775   5.5592   5.6099   5.8853
     6.0505   6.1065   6.1215   6.2121   6.2340   6.3711   6.3711   6.4076
     6.4677   6.5625   6.5791   6.6768   6.6768   6.9001   6.9001   6.9026
     6.9473   7.0423   7.1811   7.2356   7.2894   7.2894   7.3283   7.3283
     7.4131   7.4131   7.5615   7.5616   7.6617   7.6617   7.7884   7.7884
     7.8626   7.9541   7.9630   7.9656   8.0185   8.0185   8.0330   8.0483
     8.0896   8.0896   8.0918   8.1552   8.1935   8.2265   8.2376   8.2435
     8.2584   8.2584   8.2989   8.3024   8.3024   8.4095   8.4095   8.8673
    10.9391  12.9741  12.9742  13.4627  13.6092  13.6306  13.6877  13.7520
    13.7520  13.8144  14.4989  14.4989  14.8918  14.8918  14.9792  15.3808
    15.6970  15.7150  16.2700  16.2700  16.3289  16.3289  16.5738  16.5760
    16.9651  16.9651  17.1823  17.1823  17.5512  17.5961  17.7445  18.1805
    18.4071  18.4960  18.8100  18.8100  18.9068  18.9068  19.1251  19.1251
    19.1268  19.1268  19.1587  19.2355  19.3763  19.4036  19.5159  19.6438

          k = 0.1250 0.1250 0.6191 ( 31380 PWs)   bands (ev):

   -11.8488 -11.7939 -11.7939 -11.7600 -11.7600 -11.7299 -11.7229 -11.7228
   -11.6499 -11.6444 -11.6444 -11.6390 -11.6124 -11.5811 -11.5719 -11.5574
   -11.5049 -11.4224 -11.4039 -11.3970 -11.3898 -11.3724 -11.2847 -11.2846
   -11.2568 -11.2568 -11.2320 -11.2320 -11.1653 -11.1653 -11.1573 -11.1245
   -11.0335 -11.0196 -11.0168 -11.0167 -11.0166 -11.0160 -11.0079 -11.0079
   -10.9814 -10.9814 -10.9789 -10.9783 -10.9782 -10.9691 -10.9671 -10.9643
   -10.9518 -10.9409 -10.9273 -10.9273 -10.9266 -10.9257 -10.9257 -10.9232
   -10.9231 -10.9217 -10.9191 -10.9191 -10.9177 -10.9162 -10.9162 -10.9153
   -10.9122 -10.9101 -10.9048 -10.9048 -10.9002 -10.9002 -10.8995 -10.8991
   -10.8990 -10.8977 -10.8943 -10.8942 -10.8942 -10.8916 -10.8916 -10.8913
    -9.4626  -9.1964  -8.8628  -8.8628  -8.6877  -8.6876  -8.4895  -8.4895
    -8.3382  -8.3382  -8.1840  -8.0944  -7.9798  -7.9542  -7.4748  -7.4295
    -7.3810  -7.2943  -7.2072  -7.1137  -7.0285  -7.0063  -6.8565  -6.8565
    -6.7578  -6.6573  -6.6573  -6.6566  -6.6566  -6.5763  -6.5400  -6.5400
     0.9476   1.0073   1.8297   1.8971   2.0749   2.0749   2.1507   2.1507
     2.3928   2.4876   2.6453   2.6453   2.8430   2.8430   3.7646   3.8375
     3.8375   3.9633   3.9633   4.2511   4.2511   4.3546   4.3546   4.5620
     4.5937   4.8289   4.9272   4.9292   5.2387   5.3648   5.4011   5.4103
     5.4567   5.4898   5.5096   5.5096   5.5645   5.5645   5.5731   5.6652
     5.7367   5.8185   5.9094   5.9161   6.0595   6.0595   6.1627   6.1627
     6.1835   6.2656   6.3802   6.4204   6.5925   6.6071   6.6117   6.6309
     6.8416   6.8506   7.1485   7.1485   7.3595   7.3595   7.4107   7.4107
     7.4590   7.4590   7.5428   7.5428   7.6359   7.6359   7.7011   7.7011
     7.9227   7.9227   7.9538   8.0131   8.0945   8.1063   8.1063   8.1198
     8.1268   8.1280   8.1696   8.1842   8.2070   8.2070   8.2216   8.2462
     8.2870   8.2870   8.2961   8.2972   8.3515   8.3515   8.3848   8.6714
    11.9614  12.9595  13.4936  13.4936  13.6374  13.6924  13.7649  13.7858
    14.0413  14.0413  14.2037  14.2037  14.6240  14.6240  15.3370  15.5057
    16.5825  16.6126  17.0581  17.0581  17.0768  17.0768  17.1640  17.1658
    17.3852  17.3852  17.4382  17.4651  17.4651  17.5785  17.5913  17.6043
    17.6423  17.6766  18.0894  18.0894  18.1249  18.1249  18.5293  18.5293
    18.5969  18.5969  18.8158  18.8865  19.1996  19.3170  19.5688  19.7292

          k = 0.1250 0.3750 0.1238 ( 31304 PWs)   bands (ev):

   -11.9758 -11.9404 -11.9382 -11.8937 -11.8934 -11.8917 -11.8888 -11.8873
   -11.8313 -11.8239 -11.7955 -11.7872 -11.7205 -11.6722 -11.5015 -11.3947
   -11.3235 -11.3181 -11.2214 -11.2187 -11.2184 -11.1840 -11.1302 -11.1146
   -11.1136 -11.1123 -11.1097 -11.1086 -11.1072 -11.1060 -11.1006 -11.1001
   -11.0842 -11.0744 -11.0744 -11.0693 -11.0656 -11.0593 -11.0454 -11.0284
   -10.9638 -10.9635 -10.9618 -10.9613 -10.9610 -10.9607 -10.9598 -10.9590
   -10.9590 -10.9471 -10.9303 -10.9268 -10.9185 -10.9179 -10.9128 -10.9094
   -10.9065 -10.9065 -10.9052 -10.9048 -10.9047 -10.9043 -10.9040 -10.8957
   -10.8701 -10.8654 -10.8651 -10.8637 -10.8628 -10.8626 -10.8623 -10.8622
   -10.8617 -10.8602 -10.8599 -10.8594 -10.8590 -10.8580 -10.8568 -10.8549
    -9.6002  -9.4048  -8.9899  -8.7377  -8.6355  -8.4209  -8.4086  -8.3887
    -8.3650  -8.2931  -8.1520  -8.1429  -8.1159  -8.0984  -8.0046  -7.9618
    -7.7384  -7.6280  -7.4601  -7.3103  -7.2531  -6.9615  -6.5790  -6.5402
    -6.5331  -6.4868  -6.4775  -6.4629  -6.4484  -6.3986  -6.3845  -6.3812
     1.1602   1.2402   1.3958   1.5436   1.5692   1.6005   1.7277   1.7705
     2.1395   2.1669   2.3769   2.7621   3.0512   3.3138   3.6455   3.7068
     3.9384   4.1112   4.1210   4.1707   4.1766   4.1789   4.3819   4.5401
     4.6840   4.7670   4.7795   4.9875   5.0274   5.0615   5.0966   5.1817
     5.2608   5.2704   5.3299   5.4196   5.6017   5.6520   5.6981   5.7643
     5.9140   5.9563   6.1963   6.2028   6.2035   6.3833   6.5032   6.5484
     6.7205   6.8840   6.9036   7.0535   7.0756   7.1110   7.1487   7.1771
     7.2217   7.2687   7.3398   7.3534   7.3853   7.4137   7.5706   7.6205
     7.6233   7.6297   7.6703   7.6879   7.7032   7.7073   7.7360   7.7360
     7.7568   7.7662   7.7673   7.7983   7.8996   7.9008   7.9116   7.9200
     7.9317   7.9721   8.0152   8.0660   8.1006   8.1151   8.1511   8.1544
     8.1979   8.2708   8.2841   8.2915   8.3123   8.3749   8.6098   8.8249
    10.8411  11.7346  12.8125  13.0663  13.4789  13.5018  13.8171  13.9236
    14.0632  14.2882  14.4592  14.4839  14.5330  14.6279  15.0545  15.0720
    15.2827  15.3911  15.5252  15.6716  15.9049  15.9521  16.0728  16.0978
    16.8549  16.9461  17.2644  17.3498  17.4693  17.5232  17.7249  18.1548
    19.0794  19.2371  19.3023  19.3088  19.3265  19.3593  19.3618  19.4181
    19.4511  19.5549  19.5643  19.5690  19.5779  19.6236  19.7711  19.7910

          k = 0.1250 0.3750 0.3715 ( 31326 PWs)   bands (ev):

   -11.9194 -11.8789 -11.8770 -11.8453 -11.8288 -11.8288 -11.8266 -11.8215
   -11.7613 -11.7530 -11.7426 -11.7417 -11.6711 -11.6359 -11.4807 -11.4215
   -11.3623 -11.3616 -11.2965 -11.2605 -11.2528 -11.2127 -11.2100 -11.2098
   -11.2094 -11.2088 -11.2060 -11.2010 -11.2002 -11.1575 -11.1281 -11.0929
   -11.0699 -11.0587 -11.0558 -11.0503 -11.0447 -11.0352 -11.0168 -11.0102
   -10.9609 -10.9591 -10.9546 -10.9546 -10.9545 -10.9542 -10.9504 -10.9502
   -10.9475 -10.9436 -10.9280 -10.9247 -10.9229 -10.9182 -10.9169 -10.9166
   -10.9113 -10.9102 -10.9098 -10.9066 -10.9065 -10.9048 -10.9026 -10.9024
   -10.9009 -10.8993 -10.8984 -10.8977 -10.8959 -10.8942 -10.8922 -10.8918
   -10.8773 -10.8773 -10.8767 -10.8762 -10.8758 -10.8753 -10.8744 -10.8741
    -9.5212  -9.3166  -8.8857  -8.7869  -8.6947  -8.6332  -8.5189  -8.4092
    -8.2796  -8.2600  -8.2235  -8.1521  -8.0051  -7.9501  -7.9322  -7.6416
    -7.5666  -7.5133  -7.3210  -7.2076  -7.1700  -6.8980  -6.7338  -6.6881
    -6.6036  -6.5949  -6.5885  -6.5405  -6.5336  -6.4838  -6.4448  -6.4316
     1.1579   1.3329   1.4659   1.5738   1.6067   1.6371   1.7013   1.9844
     2.3362   2.6107   2.6181   2.7748   2.9608   3.0531   3.6558   3.7418
     4.0361   4.1268   4.2552   4.3054   4.3481   4.4424   4.4667   4.7103
     4.8231   4.8334   4.8719   4.9444   4.9475   5.0205   5.0391   5.0885
     5.1521   5.1524   5.1599   5.2249   5.3548   5.3615   5.5982   5.6079
     5.6782   6.0265   6.0695   6.2242   6.2466   6.3606   6.4946   6.5307
     6.5397   6.5523   6.7635   6.8689   6.9239   6.9600   7.0163   7.0541
     7.0959   7.1264   7.1413   7.2474   7.3091   7.3213   7.3919   7.4126
     7.4541   7.5414   7.5710   7.5857   7.6024   7.6437   7.6970   7.7442
     7.7863   7.8651   7.8859   7.9080   7.9182   7.9392   7.9466   7.9805
     8.0439   8.0942   8.1064   8.1177   8.1673   8.2181   8.2270   8.2323
     8.2426   8.2819   8.2883   8.2901   8.3544   8.4112   8.6021   8.7782
    11.4024  12.1424  13.0869  13.2707  13.6927  13.7330  13.8132  13.9208
    13.9898  14.1490  14.1661  14.3669  14.4682  14.7711  15.1885  15.3331
    15.8108  15.8962  16.0317  16.1519  16.3698  16.4086  16.4976  16.5117
    17.0297  17.1345  17.2960  17.3927  17.5671  17.6215  17.7794  18.1114
    18.3740  18.5719  18.6137  18.7127  18.7950  18.9035  18.9209  18.9606
    19.1547  19.2222  19.2500  19.2867  19.3517  19.3953  19.6407  19.9271

          k = 0.1250 0.3750 0.6191 ( 31318 PWs)   bands (ev):

   -11.8274 -11.7968 -11.7848 -11.7728 -11.7709 -11.7243 -11.7187 -11.7067
   -11.6994 -11.6764 -11.6480 -11.6325 -11.6252 -11.6154 -11.5549 -11.4767
   -11.4657 -11.4247 -11.3723 -11.3715 -11.3668 -11.3345 -11.3233 -11.3213
   -11.3179 -11.3108 -11.2639 -11.2174 -11.1880 -11.1626 -11.1108 -11.1034
   -11.0311 -11.0250 -11.0204 -11.0191 -11.0128 -11.0092 -11.0062 -11.0025
   -10.9823 -10.9809 -10.9782 -10.9742 -10.9725 -10.9719 -10.9709 -10.9662
   -10.9469 -10.9386 -10.9382 -10.9330 -10.9276 -10.9263 -10.9252 -10.9217
   -10.9205 -10.9204 -10.9198 -10.9171 -10.9169 -10.9157 -10.9149 -10.9114
   -10.9108 -10.9077 -10.9070 -10.9066 -10.9032 -10.9008 -10.8979 -10.8977
   -10.8972 -10.8969 -10.8963 -10.8956 -10.8956 -10.8940 -10.8913 -10.8904
    -9.3648  -9.1628  -9.1216  -8.9545  -8.7281  -8.5620  -8.4847  -8.3560
    -8.3423  -8.2205  -8.1329  -8.0807  -8.0444  -7.9401  -7.6913  -7.5373
    -7.2859  -7.2796  -7.0834  -7.0212  -7.0082  -6.9963  -6.9593  -6.8146
    -6.7988  -6.7958  -6.7782  -6.6258  -6.5843  -6.5351  -6.5198  -6.5070
     1.1614   1.2012   1.5702   1.5732   1.8581   1.9620   2.0703   2.2054
     2.2947   2.3465   2.5906   2.7195   3.1732   3.5622   3.5633   3.9218
     4.1497   4.1829   4.1937   4.3341   4.3523   4.4821   4.5206   4.5873
     4.6243   4.6356   4.7434   4.8648   4.9392   4.9410   4.9688   5.1190
     5.1422   5.3108   5.4485   5.4928   5.5069   5.5576   5.6400   5.7016
     5.7104   5.8083   5.8884   5.9058   6.0023   6.0103   6.0889   6.2565
     6.2604   6.3817   6.5664   6.6080   6.7744   6.8552   6.8832   6.8893
     6.9375   7.0654   7.1063   7.1902   7.1907   7.1985   7.2132   7.3620
     7.3796   7.4326   7.4574   7.5311   7.5811   7.7351   7.7417   7.7426
     7.7712   7.8101   7.9222   7.9436   7.9588   8.0366   8.0852   8.1192
     8.1346   8.1473   8.1727   8.1918   8.2140   8.2256   8.2417   8.2446
     8.3170   8.3446   8.3899   8.3923   8.4007   8.4054   8.5348   8.6401
    12.2498  12.7941  13.1366  13.5042  13.5071  13.5481  13.7450  13.8993
    13.9213  14.0250  14.0870  14.3569  14.7889  15.1040  15.1670  15.3907
    16.6639  16.7187  16.8676  16.8857  17.0961  17.1270  17.1440  17.1591
    17.3440  17.3716  17.4460  17.5344  17.5402  17.5811  17.6053  17.6686
    17.6812  17.7891  17.8235  17.9292  18.1774  18.1838  18.4112  18.4344
    18.6793  18.7745  18.9542  19.0619  19.0732  19.2787  19.5780  19.9220

          k = 0.3750 0.3750 0.1238 ( 31302 PWs)   bands (ev):

   -11.9570 -11.9570 -11.9438 -11.9409 -11.9375 -11.8803 -11.8803 -11.8491
   -11.8277 -11.8277 -11.7966 -11.7920 -11.6329 -11.5515 -11.5515 -11.4504
   -11.3647 -11.3632 -11.3157 -11.3157 -11.1278 -11.1154 -11.1154 -11.1145
   -11.1118 -11.1116 -11.1006 -11.1006 -11.0966 -11.0956 -11.0883 -11.0883
   -11.0857 -11.0807 -11.0789 -11.0789 -11.0564 -11.0491 -11.0491 -11.0380
   -10.9647 -10.9647 -10.9638 -10.9633 -10.9611 -10.9608 -10.9608 -10.9604
   -10.9531 -10.9428 -10.9428 -10.9356 -10.9118 -10.9112 -10.9091 -10.9091
   -10.9081 -10.9073 -10.9073 -10.9040 -10.9036 -10.9036 -10.9036 -10.8994
   -10.8674 -10.8665 -10.8665 -10.8653 -10.8652 -10.8626 -10.8626 -10.8621
   -10.8598 -10.8598 -10.8588 -10.8586 -10.8574 -10.8563 -10.8555 -10.8555
    -9.4932  -9.2849  -9.2848  -9.0553  -8.4097  -8.3873  -8.3873  -8.2929
    -8.2643  -8.2643  -8.0218  -8.0218  -7.9937  -7.9730  -7.9592  -7.9574
    -7.9468  -7.9287  -7.6558  -7.6558  -6.9154  -6.6671  -6.6671  -6.6111
    -6.5812  -6.5565  -6.5564  -6.4704  -6.3999  -6.3814  -6.3616  -6.3616
     1.2630   1.3786   1.4501   1.4501   1.4900   1.7053   1.7978   1.7978
     2.0601   2.0602   2.2133   2.2190   3.6830   3.7244   3.7244   3.7702
     3.7702   3.8066   4.2236   4.2667   4.2844   4.3012   4.3251   4.3251
     4.5026   4.5026   4.5044   4.5641   5.0300   5.0941   5.1482   5.1482
     5.3496   5.5867   5.5867   5.5947   5.5947   5.6893   5.8619   5.9142
     6.1147   6.1147   6.3016   6.3223   6.3591   6.3900   6.3964   6.5311
     6.5674   6.5674   6.7060   6.8508   6.8508   6.8548   6.8548   7.2669
     7.3089   7.3405   7.3405   7.3443   7.5160   7.6208   7.6402   7.6402
     7.6421   7.6440   7.6563   7.6563   7.7312   7.7312   7.7743   7.7918
     7.7918   7.7948   7.8051   7.8326   7.8358   7.8399   7.8810   7.8810
     7.9433   7.9636   7.9977   7.9977   8.0172   8.1089   8.1089   8.1106
     8.1977   8.2497   8.2497   8.2541   8.4034   8.5375   8.5376   8.7183
    11.3309  12.0538  12.0538  12.5475  13.7960  13.9615  13.9679  13.9679
    14.2758  14.2771  14.2771  14.3029  14.3923  14.8201  14.8201  15.0579
    15.4865  15.5415  15.7058  15.7058  15.7951  15.7951  15.9213  15.9787
    16.6674  16.6674  16.7929  16.8960  18.1413  18.1413  18.1882  18.7306
    18.8905  19.0999  19.1137  19.1476  19.1689  19.1690  19.1730  19.1730
    19.5440  19.5839  19.5839  19.6075  19.6155  19.8803  19.9087  19.9477

          k = 0.3750 0.3750 0.3715 ( 31319 PWs)   bands (ev):

   -11.8946 -11.8946 -11.8891 -11.8777 -11.8768 -11.8294 -11.8294 -11.7953
   -11.7578 -11.7578 -11.7204 -11.7160 -11.5924 -11.5224 -11.5224 -11.4378
   -11.4226 -11.4184 -11.3717 -11.3717 -11.2133 -11.2116 -11.2115 -11.2114
   -11.2056 -11.2023 -11.2023 -11.1997 -11.1522 -11.0960 -11.0960 -11.0938
   -11.0690 -11.0624 -11.0624 -11.0621 -11.0314 -11.0209 -11.0209 -11.0120
   -10.9605 -10.9605 -10.9583 -10.9574 -10.9510 -10.9510 -10.9500 -10.9495
   -10.9491 -10.9396 -10.9396 -10.9329 -10.9189 -10.9153 -10.9153 -10.9123
   -10.9105 -10.9087 -10.9066 -10.9066 -10.9054 -10.9043 -10.9043 -10.9031
   -10.9015 -10.9014 -10.8999 -10.8993 -10.8951 -10.8930 -10.8930 -10.8926
   -10.8779 -10.8779 -10.8777 -10.8768 -10.8747 -10.8746 -10.8746 -10.8746
    -9.4097  -9.1923  -9.1923  -8.9562  -8.7361  -8.6126  -8.6126  -8.4468
    -8.1355  -8.1355  -7.9476  -7.8955  -7.8955  -7.8828  -7.8355  -7.7734
    -7.7313  -7.7125  -7.5179  -7.5179  -6.8639  -6.7855  -6.7535  -6.7102
    -6.7102  -6.6462  -6.6462  -6.4911  -6.4844  -6.4482  -6.4278  -6.4277
     1.3733   1.3869   1.4315   1.5050   1.5050   1.7818   1.7818   1.9444
     2.1566   2.3350   2.3351   2.6474   3.3605   3.5445   3.5445   3.8321
     3.8356   3.8356   3.9904   4.2970   4.5717   4.5776   4.5952   4.5952
     4.7765   4.7765   4.8240   4.8548   4.9839   4.9839   5.1637   5.2243
     5.2385   5.3200   5.3200   5.4344   5.5517   5.5537   5.5537   5.7545
     5.8473   5.8473   5.9226   6.1046   6.1563   6.2699   6.2954   6.3831
     6.4116   6.4116   6.6405   6.7372   6.7372   6.8302   6.8302   6.9879
     7.2312   7.2472   7.2623   7.3822   7.3822   7.4457   7.4718   7.4718
     7.5005   7.5018   7.5018   7.5863   7.6674   7.6674   7.7001   7.7462
     7.7462   7.8062   7.8245   7.8714   7.9183   7.9607   7.9607   8.0106
     8.0220   8.1170   8.1192   8.1192   8.1442   8.2127   8.2182   8.2182
     8.2495   8.2536   8.2536   8.2699   8.4923   8.5805   8.5805   8.7181
    11.7782  12.3925  12.3925  12.8061  13.8369  13.9309  13.9939  13.9939
    14.0171  14.2396  14.2396  14.3689  14.5798  14.8536  14.8536  15.1845
    15.9731  16.0412  16.1858  16.1858  16.2598  16.2598  16.3771  16.4089
    16.9014  16.9014  16.9627  17.0764  18.0770  18.0770  18.1250  18.4187
    18.4209  18.4696  18.5442  18.5442  18.6123  18.6714  18.6714  18.7195
    19.3815  19.3815  19.4697  19.5640  19.6743  19.7462  19.7516  19.7516

          k = 0.3750 0.3750 0.6191 ( 31333 PWs)   bands (ev):

   -11.8067 -11.7976 -11.7976 -11.7933 -11.7753 -11.7660 -11.7659 -11.7289
   -11.6417 -11.6417 -11.5785 -11.5747 -11.5652 -11.5510 -11.5510 -11.5195
   -11.5074 -11.4837 -11.4361 -11.4361 -11.3950 -11.3920 -11.3700 -11.3699
   -11.2583 -11.2116 -11.2116 -11.2082 -11.1764 -11.1384 -11.1384 -11.1023
   -11.0314 -11.0272 -11.0272 -11.0256 -11.0049 -11.0006 -11.0006 -10.9994
   -10.9844 -10.9831 -10.9831 -10.9789 -10.9663 -10.9663 -10.9659 -10.9629
   -10.9426 -10.9378 -10.9348 -10.9348 -10.9335 -10.9335 -10.9327 -10.9289
   -10.9200 -10.9176 -10.9176 -10.9155 -10.9147 -10.9140 -10.9118 -10.9118
   -10.9102 -10.9079 -10.9079 -10.9034 -10.9032 -10.8999 -10.8999 -10.8975
   -10.8971 -10.8966 -10.8966 -10.8958 -10.8955 -10.8930 -10.8930 -10.8928
    -9.2554  -9.0381  -9.0381  -9.0311  -8.8422  -8.8422  -8.8025  -8.6280
    -7.9686  -7.9686  -7.8854  -7.8692  -7.8692  -7.8534  -7.6815  -7.6071
    -7.4474  -7.4085  -7.2697  -7.2697  -7.0888  -7.0535  -6.9729  -6.9729
    -6.7611  -6.6212  -6.5993  -6.5993  -6.5216  -6.5215  -6.5189  -6.5136
     1.3486   1.3588   1.6168   1.6168   1.7113   1.7253   1.7253   1.9881
     2.3689   2.7637   2.7637   2.8765   3.1983   3.1983   3.2119   3.6538
     4.0476   4.0606   4.0606   4.3834   4.5664   4.5664   4.6614   4.6856
     4.9123   4.9123   4.9680   4.9681   5.0919   5.0982   5.2810   5.2810
     5.2944   5.3651   5.4134   5.4458   5.5180   5.6204   5.6311   5.6311
     5.7549   5.8075   5.8283   5.8367   5.8367   5.9478   6.0241   6.0241
     6.0286   6.2664   6.2985   6.4111   6.4532   6.4532   6.5598   6.5598
     6.9966   7.0644   7.2736   7.2736   7.3374   7.3374   7.3905   7.4621
     7.4914   7.5468   7.5757   7.6331   7.6331   7.6769   7.6769   7.7741
     7.8271   7.8271   7.8569   7.8796   7.9926   7.9926   8.0335   8.0898
     8.1439   8.1439   8.1459   8.1694   8.2013   8.2114   8.2114   8.2319
     8.4145   8.4146   8.4172   8.4219   8.5081   8.5458   8.5458   8.6241
    12.4900  12.9362  12.9362  13.2021  13.2575  13.5148  13.5148  13.5786
    14.2819  14.4031  14.5934  14.5934  14.8149  14.8149  14.9655  15.1888
    16.7657  16.8515  16.9772  16.9772  16.9903  16.9903  17.0923  17.1107
    17.2510  17.2957  17.2957  17.3972  17.7072  17.7127  17.7127  17.7327
    17.7596  17.7829  17.8659  17.8659  17.8707  17.8707  17.9923  18.0273
    19.2817  19.2817  19.4570  19.4682  19.4682  19.6328  19.7162  19.7763

          k =-0.1250 0.1250-0.1238 ( 31307 PWs)   bands (ev):

   -12.0179 -11.9570 -11.9570 -11.9391 -11.9391 -11.8328 -11.8225 -11.7997
   -11.7902 -11.7886 -11.7777 -11.7777 -11.7643 -11.6397 -11.6397 -11.3878
   -11.3666 -11.3422 -11.3188 -11.2619 -11.1340 -11.1340 -11.1160 -11.1159
   -11.1137 -11.1137 -11.1035 -11.1001 -11.0973 -11.0950 -11.0946 -11.0946
   -11.0920 -11.0762 -11.0723 -11.0650 -11.0650 -11.0559 -11.0559 -11.0081
   -10.9655 -10.9620 -10.9620 -10.9595 -10.9590 -10.9589 -10.9589 -10.9572
   -10.9567 -10.9327 -10.9327 -10.9233 -10.9204 -10.9180 -10.9180 -10.9155
   -10.9063 -10.9060 -10.9060 -10.9057 -10.9056 -10.9039 -10.9039 -10.8907
   -10.8744 -10.8664 -10.8664 -10.8652 -10.8652 -10.8634 -10.8627 -10.8611
   -10.8603 -10.8594 -10.8592 -10.8584 -10.8577 -10.8576 -10.8543 -10.8543
    -9.6992  -9.1245  -9.1245  -8.7833  -8.7833  -8.3983  -8.3741  -8.3741
    -8.3586  -8.2693  -8.2693  -8.0186  -8.0044  -7.9906  -7.9296  -7.9008
    -7.8975  -7.8640  -7.6228  -7.1263  -7.1262  -6.8006  -6.8006  -6.6321
    -6.5881  -6.5598  -6.5223  -6.3942  -6.3942  -6.3633  -6.3632  -6.3184
     0.9524   1.1026   1.1566   1.5395   1.9126   1.9126   2.0947   2.0947
     2.1042   2.1541   2.1541   2.8685   2.8685   3.1846   3.4239   3.5425
     3.5425   3.7218   3.7218   4.1117   4.1123   4.7054   4.8006   4.8123
     4.8123   4.8633   4.8824   4.9148   4.9148   5.0143   5.1265   5.1596
     5.3255   5.3825   5.4564   5.4564   5.7204   5.8143   5.8143   5.9757
     6.0299   6.0510   6.0510   6.0749   6.3533   6.4205   6.5132   6.5203
     6.5203   6.7082   6.7583   6.8805   6.8805   6.9483   7.0240   7.0913
     7.1655   7.2096   7.2096   7.2568   7.2883   7.2883   7.3648   7.3648
     7.6424   7.6604   7.6841   7.7111   7.7439   7.7439   7.7449   7.7734
     7.7734   7.7991   7.8246   7.9031   7.9031   7.9948   7.9948   8.0411
     8.0491   8.1121   8.1440   8.1541   8.1541   8.1732   8.1890   8.2064
     8.2559   8.2559   8.2856   8.3499   8.3499   8.4345   8.4345   8.9617
    10.1724  12.6452  12.6452  13.3066  13.4508  13.4508  13.4584  13.5604
    13.5909  14.4916  14.6854  14.7916  14.7916  14.9814  14.9814  15.0218
    15.1570  15.1573  15.7771  15.7771  15.8465  15.8465  16.1832  16.1914
    16.6972  16.6972  16.9698  16.9698  17.4980  17.6759  17.8992  18.5602
    18.8535  19.1654  19.2987  19.3808  19.3808  19.4640  19.4826  19.4979
    19.4979  19.5370  19.5370  19.5548  19.5815  19.5816  19.6037  19.6215

          k =-0.1250 0.1250-0.3715 ( 31318 PWs)   bands (ev):

   -11.9574 -11.8946 -11.8946 -11.8739 -11.8739 -11.7627 -11.7578 -11.7403
   -11.7403 -11.7308 -11.7234 -11.7128 -11.7062 -11.6138 -11.6138 -11.5162
   -11.4146 -11.3597 -11.2849 -11.2144 -11.2133 -11.2102 -11.2067 -11.2067
   -11.2048 -11.2038 -11.2037 -11.1827 -11.1827 -11.1761 -11.1093 -11.1093
   -11.0754 -11.0571 -11.0530 -11.0445 -11.0444 -11.0294 -11.0293 -11.0098
   -10.9614 -10.9614 -10.9607 -10.9559 -10.9558 -10.9487 -10.9471 -10.9471
   -10.9453 -10.9303 -10.9303 -10.9268 -10.9211 -10.9184 -10.9181 -10.9168
   -10.9168 -10.9124 -10.9124 -10.9087 -10.9074 -10.9066 -10.9066 -10.9052
   -10.9030 -10.8987 -10.8945 -10.8945 -10.8929 -10.8918 -10.8918 -10.8911
   -10.8774 -10.8774 -10.8761 -10.8761 -10.8759 -10.8752 -10.8752 -10.8751
    -9.6241  -9.0220  -9.0220  -8.8196  -8.6630  -8.6630  -8.5178  -8.5177
    -8.3003  -8.2592  -8.2592  -8.0299  -8.0041  -7.9358  -7.8032  -7.7179
    -7.7016  -7.5157  -7.4187  -7.0283  -7.0283  -6.8080  -6.7499  -6.7499
    -6.7434  -6.7307  -6.6600  -6.4880  -6.4880  -6.4309  -6.4308  -6.4051
     0.9444   1.1868   1.3638   1.4207   1.9653   1.9653   2.1638   2.1638
     2.3311   2.3311   2.8523   2.8811   2.8811   2.8976   3.0555   3.6223
     3.6223   3.8091   3.8091   4.4069   4.4074   4.6032   4.7576   4.8117
     4.8117   5.0482   5.0482   5.0482   5.0483   5.0861   5.1220   5.1221
     5.1402   5.1759   5.2125   5.2322   5.2775   5.5592   5.6099   5.8853
     6.0505   6.1065   6.1215   6.2121   6.2340   6.3711   6.3711   6.4076
     6.4677   6.5625   6.5791   6.6768   6.6769   6.9001   6.9001   6.9026
     6.9473   7.0423   7.1811   7.2356   7.2894   7.2894   7.3283   7.3283
     7.4131   7.4131   7.5615   7.5615   7.6617   7.6617   7.7884   7.7884
     7.8626   7.9542   7.9630   7.9656   8.0184   8.0185   8.0330   8.0483
     8.0896   8.0896   8.0918   8.1552   8.1935   8.2265   8.2376   8.2435
     8.2584   8.2584   8.2989   8.3024   8.3024   8.4095   8.4095   8.8673
    10.9391  12.9741  12.9742  13.4627  13.6092  13.6306  13.6877  13.7520
    13.7520  13.8144  14.4989  14.4989  14.8918  14.8918  14.9792  15.3808
    15.6970  15.7150  16.2700  16.2700  16.3289  16.3289  16.5738  16.5760
    16.9651  16.9651  17.1823  17.1823  17.5512  17.5961  17.7445  18.1805
    18.4071  18.4960  18.8100  18.8100  18.9068  18.9068  19.1251  19.1251
    19.1268  19.1268  19.1587  19.2355  19.3763  19.4036  19.5159  19.6439

          k =-0.1250 0.1250-0.6191 ( 31380 PWs)   bands (ev):

   -11.8488 -11.7939 -11.7939 -11.7600 -11.7600 -11.7299 -11.7228 -11.7228
   -11.6499 -11.6444 -11.6444 -11.6390 -11.6123 -11.5811 -11.5719 -11.5574
   -11.5049 -11.4224 -11.4039 -11.3971 -11.3898 -11.3724 -11.2846 -11.2846
   -11.2568 -11.2568 -11.2320 -11.2320 -11.1653 -11.1653 -11.1573 -11.1245
   -11.0335 -11.0196 -11.0168 -11.0167 -11.0166 -11.0160 -11.0079 -11.0079
   -10.9814 -10.9814 -10.9789 -10.9783 -10.9782 -10.9691 -10.9671 -10.9643
   -10.9518 -10.9409 -10.9273 -10.9273 -10.9266 -10.9257 -10.9257 -10.9232
   -10.9231 -10.9217 -10.9191 -10.9191 -10.9177 -10.9162 -10.9162 -10.9153
   -10.9122 -10.9101 -10.9048 -10.9048 -10.9002 -10.9002 -10.8995 -10.8991
   -10.8990 -10.8977 -10.8943 -10.8942 -10.8942 -10.8916 -10.8916 -10.8913
    -9.4626  -9.1964  -8.8628  -8.8628  -8.6877  -8.6876  -8.4895  -8.4895
    -8.3382  -8.3382  -8.1840  -8.0944  -7.9798  -7.9542  -7.4748  -7.4295
    -7.3810  -7.2943  -7.2072  -7.1137  -7.0285  -7.0063  -6.8565  -6.8565
    -6.7578  -6.6573  -6.6573  -6.6566  -6.6566  -6.5763  -6.5400  -6.5400
     0.9476   1.0073   1.8297   1.8971   2.0749   2.0749   2.1507   2.1507
     2.3928   2.4876   2.6453   2.6453   2.8430   2.8430   3.7646   3.8375
     3.8375   3.9633   3.9633   4.2511   4.2511   4.3546   4.3546   4.5620
     4.5937   4.8289   4.9272   4.9292   5.2387   5.3648   5.4011   5.4103
     5.4567   5.4898   5.5096   5.5096   5.5645   5.5645   5.5731   5.6652
     5.7367   5.8185   5.9094   5.9161   6.0595   6.0595   6.1627   6.1627
     6.1835   6.2656   6.3802   6.4204   6.5925   6.6071   6.6117   6.6309
     6.8416   6.8506   7.1485   7.1485   7.3595   7.3595   7.4107   7.4107
     7.4590   7.4590   7.5428   7.5428   7.6359   7.6359   7.7011   7.7011
     7.9227   7.9227   7.9539   8.0131   8.0945   8.1063   8.1063   8.1198
     8.1268   8.1280   8.1696   8.1842   8.2070   8.2070   8.2216   8.2462
     8.2870   8.2870   8.2961   8.2972   8.3515   8.3515   8.3848   8.6714
    11.9614  12.9595  13.4936  13.4936  13.6374  13.6924  13.7649  13.7858
    14.0413  14.0413  14.2037  14.2037  14.6240  14.6240  15.3370  15.5057
    16.5825  16.6126  17.0581  17.0581  17.0768  17.0768  17.1640  17.1658
    17.3852  17.3852  17.4382  17.4651  17.4651  17.5785  17.5913  17.6043
    17.6423  17.6766  18.0894  18.0894  18.1249  18.1249  18.5293  18.5293
    18.5969  18.5969  18.8158  18.8865  19.1996  19.3170  19.5688  19.7292

          k =-0.1250 0.3750-0.1238 ( 31304 PWs)   bands (ev):

   -11.9758 -11.9404 -11.9382 -11.8937 -11.8934 -11.8917 -11.8888 -11.8873
   -11.8313 -11.8239 -11.7955 -11.7872 -11.7205 -11.6722 -11.5015 -11.3947
   -11.3235 -11.3181 -11.2214 -11.2187 -11.2184 -11.1840 -11.1302 -11.1146
   -11.1136 -11.1123 -11.1097 -11.1086 -11.1071 -11.1060 -11.1006 -11.1001
   -11.0842 -11.0744 -11.0744 -11.0693 -11.0656 -11.0593 -11.0454 -11.0284
   -10.9638 -10.9635 -10.9618 -10.9613 -10.9611 -10.9607 -10.9598 -10.9590
   -10.9590 -10.9471 -10.9303 -10.9268 -10.9185 -10.9179 -10.9128 -10.9094
   -10.9065 -10.9065 -10.9052 -10.9048 -10.9047 -10.9043 -10.9040 -10.8957
   -10.8701 -10.8654 -10.8651 -10.8637 -10.8628 -10.8626 -10.8623 -10.8622
   -10.8617 -10.8601 -10.8599 -10.8594 -10.8590 -10.8580 -10.8569 -10.8549
    -9.6002  -9.4048  -8.9899  -8.7377  -8.6355  -8.4209  -8.4086  -8.3887
    -8.3650  -8.2931  -8.1520  -8.1429  -8.1159  -8.0984  -8.0046  -7.9618
    -7.7384  -7.6280  -7.4601  -7.3103  -7.2531  -6.9615  -6.5790  -6.5402
    -6.5331  -6.4868  -6.4775  -6.4629  -6.4484  -6.3986  -6.3845  -6.3812
     1.1602   1.2402   1.3958   1.5436   1.5692   1.6005   1.7277   1.7705
     2.1395   2.1669   2.3769   2.7621   3.0512   3.3138   3.6455   3.7068
     3.9384   4.1112   4.1210   4.1707   4.1766   4.1789   4.3819   4.5401
     4.6840   4.7670   4.7795   4.9875   5.0274   5.0615   5.0966   5.1817
     5.2608   5.2704   5.3299   5.4196   5.6017   5.6520   5.6981   5.7643
     5.9140   5.9563   6.1963   6.2028   6.2035   6.3833   6.5032   6.5484
     6.7205   6.8840   6.9036   7.0535   7.0756   7.1110   7.1487   7.1771
     7.2217   7.2687   7.3398   7.3534   7.3853   7.4137   7.5707   7.6205
     7.6233   7.6297   7.6703   7.6879   7.7032   7.7073   7.7360   7.7360
     7.7568   7.7662   7.7673   7.7983   7.8996   7.9008   7.9116   7.9200
     7.9317   7.9721   8.0152   8.0660   8.1006   8.1151   8.1511   8.1544
     8.1979   8.2708   8.2841   8.2915   8.3123   8.3749   8.6098   8.8249
    10.8411  11.7346  12.8125  13.0663  13.4789  13.5018  13.8171  13.9236
    14.0632  14.2882  14.4592  14.4839  14.5330  14.6279  15.0545  15.0720
    15.2827  15.3911  15.5252  15.6716  15.9049  15.9521  16.0728  16.0978
    16.8549  16.9461  17.2644  17.3498  17.4693  17.5232  17.7249  18.1548
    19.0794  19.2371  19.3023  19.3088  19.3265  19.3593  19.3618  19.4181
    19.4511  19.5549  19.5643  19.5690  19.5779  19.6236  19.7711  19.7910

          k =-0.1250 0.3750-0.3715 ( 31326 PWs)   bands (ev):

   -11.9194 -11.8789 -11.8770 -11.8453 -11.8288 -11.8288 -11.8266 -11.8215
   -11.7613 -11.7530 -11.7426 -11.7417 -11.6711 -11.6359 -11.4807 -11.4215
   -11.3623 -11.3616 -11.2965 -11.2605 -11.2528 -11.2128 -11.2100 -11.2098
   -11.2094 -11.2088 -11.2060 -11.2010 -11.2002 -11.1575 -11.1281 -11.0929
   -11.0699 -11.0587 -11.0558 -11.0503 -11.0447 -11.0352 -11.0168 -11.0102
   -10.9608 -10.9591 -10.9546 -10.9546 -10.9545 -10.9542 -10.9504 -10.9502
   -10.9475 -10.9436 -10.9280 -10.9247 -10.9229 -10.9182 -10.9169 -10.9166
   -10.9113 -10.9102 -10.9098 -10.9066 -10.9065 -10.9048 -10.9026 -10.9024
   -10.9009 -10.8993 -10.8984 -10.8977 -10.8959 -10.8942 -10.8922 -10.8918
   -10.8773 -10.8773 -10.8767 -10.8762 -10.8758 -10.8753 -10.8744 -10.8741
    -9.5212  -9.3166  -8.8857  -8.7869  -8.6947  -8.6332  -8.5189  -8.4092
    -8.2796  -8.2600  -8.2235  -8.1521  -8.0051  -7.9501  -7.9322  -7.6416
    -7.5666  -7.5133  -7.3210  -7.2076  -7.1700  -6.8980  -6.7338  -6.6881
    -6.6036  -6.5949  -6.5885  -6.5405  -6.5336  -6.4838  -6.4448  -6.4316
     1.1579   1.3329   1.4659   1.5738   1.6067   1.6371   1.7013   1.9844
     2.3362   2.6107   2.6181   2.7748   2.9608   3.0531   3.6558   3.7418
     4.0361   4.1268   4.2552   4.3054   4.3481   4.4424   4.4667   4.7103
     4.8231   4.8334   4.8719   4.9444   4.9475   5.0205   5.0391   5.0885
     5.1521   5.1524   5.1599   5.2249   5.3548   5.3615   5.5982   5.6079
     5.6783   6.0265   6.0695   6.2242   6.2466   6.3606   6.4946   6.5307
     6.5397   6.5523   6.7635   6.8689   6.9239   6.9600   7.0163   7.0541
     7.0959   7.1264   7.1413   7.2474   7.3091   7.3213   7.3919   7.4126
     7.4541   7.5414   7.5710   7.5857   7.6024   7.6437   7.6970   7.7442
     7.7863   7.8651   7.8859   7.9080   7.9182   7.9392   7.9466   7.9805
     8.0439   8.0942   8.1064   8.1177   8.1672   8.2181   8.2270   8.2323
     8.2426   8.2819   8.2883   8.2901   8.3545   8.4112   8.6021   8.7782
    11.4024  12.1424  13.0869  13.2707  13.6927  13.7330  13.8132  13.9208
    13.9898  14.1490  14.1661  14.3669  14.4682  14.7711  15.1885  15.3331
    15.8108  15.8962  16.0317  16.1519  16.3698  16.4086  16.4976  16.5117
    17.0297  17.1345  17.2960  17.3927  17.5671  17.6215  17.7794  18.1114
    18.3740  18.5719  18.6137  18.7127  18.7950  18.9035  18.9209  18.9606
    19.1547  19.2222  19.2500  19.2867  19.3517  19.3953  19.6407  19.9269

          k =-0.1250 0.3750-0.6191 ( 31318 PWs)   bands (ev):

   -11.8274 -11.7968 -11.7848 -11.7729 -11.7709 -11.7243 -11.7187 -11.7067
   -11.6994 -11.6764 -11.6480 -11.6325 -11.6252 -11.6153 -11.5549 -11.4767
   -11.4657 -11.4247 -11.3723 -11.3715 -11.3668 -11.3345 -11.3233 -11.3213
   -11.3179 -11.3108 -11.2639 -11.2174 -11.1880 -11.1626 -11.1108 -11.1034
   -11.0311 -11.0250 -11.0204 -11.0191 -11.0128 -11.0092 -11.0062 -11.0025
   -10.9823 -10.9809 -10.9782 -10.9742 -10.9725 -10.9719 -10.9709 -10.9662
   -10.9469 -10.9386 -10.9382 -10.9330 -10.9276 -10.9263 -10.9252 -10.9217
   -10.9205 -10.9204 -10.9198 -10.9171 -10.9169 -10.9157 -10.9149 -10.9114
   -10.9108 -10.9077 -10.9070 -10.9066 -10.9032 -10.9008 -10.8979 -10.8977
   -10.8972 -10.8968 -10.8963 -10.8956 -10.8956 -10.8940 -10.8913 -10.8904
    -9.3648  -9.1628  -9.1216  -8.9545  -8.7281  -8.5620  -8.4847  -8.3560
    -8.3423  -8.2205  -8.1329  -8.0807  -8.0444  -7.9401  -7.6913  -7.5373
    -7.2859  -7.2796  -7.0834  -7.0212  -7.0082  -6.9963  -6.9593  -6.8146
    -6.7988  -6.7958  -6.7782  -6.6258  -6.5843  -6.5351  -6.5198  -6.5070
     1.1614   1.2012   1.5702   1.5732   1.8581   1.9620   2.0703   2.2054
     2.2947   2.3465   2.5906   2.7195   3.1732   3.5622   3.5633   3.9218
     4.1497   4.1829   4.1937   4.3341   4.3523   4.4821   4.5206   4.5873
     4.6243   4.6356   4.7434   4.8648   4.9392   4.9410   4.9688   5.1190
     5.1422   5.3108   5.4485   5.4928   5.5069   5.5576   5.6400   5.7016
     5.7104   5.8083   5.8884   5.9058   6.0023   6.0103   6.0889   6.2565
     6.2604   6.3817   6.5664   6.6080   6.7744   6.8552   6.8832   6.8893
     6.9375   7.0654   7.1063   7.1902   7.1907   7.1985   7.2132   7.3620
     7.3796   7.4326   7.4574   7.5311   7.5811   7.7351   7.7417   7.7426
     7.7712   7.8101   7.9222   7.9436   7.9588   8.0366   8.0852   8.1192
     8.1346   8.1473   8.1727   8.1918   8.2139   8.2256   8.2417   8.2446
     8.3170   8.3446   8.3899   8.3923   8.4007   8.4054   8.5348   8.6401
    12.2498  12.7941  13.1366  13.5042  13.5071  13.5481  13.7450  13.8993
    13.9213  14.0250  14.0870  14.3569  14.7889  15.1040  15.1670  15.3907
    16.6639  16.7187  16.8676  16.8857  17.0961  17.1270  17.1440  17.1591
    17.3440  17.3716  17.4460  17.5344  17.5402  17.5811  17.6053  17.6686
    17.6812  17.7891  17.8235  17.9292  18.1774  18.1838  18.4112  18.4344
    18.6793  18.7745  18.9542  19.0619  19.0732  19.2787  19.5780  19.9220

          k =-0.3750 0.3750-0.1238 ( 31302 PWs)   bands (ev):

   -11.9570 -11.9570 -11.9438 -11.9409 -11.9375 -11.8803 -11.8803 -11.8491
   -11.8277 -11.8277 -11.7966 -11.7920 -11.6329 -11.5515 -11.5515 -11.4504
   -11.3647 -11.3632 -11.3157 -11.3157 -11.1278 -11.1154 -11.1154 -11.1145
   -11.1118 -11.1116 -11.1006 -11.1006 -11.0966 -11.0956 -11.0883 -11.0883
   -11.0857 -11.0807 -11.0789 -11.0789 -11.0564 -11.0491 -11.0491 -11.0380
   -10.9647 -10.9647 -10.9638 -10.9633 -10.9611 -10.9608 -10.9608 -10.9604
   -10.9531 -10.9428 -10.9428 -10.9356 -10.9118 -10.9112 -10.9091 -10.9091
   -10.9081 -10.9073 -10.9073 -10.9040 -10.9037 -10.9036 -10.9036 -10.8994
   -10.8674 -10.8665 -10.8665 -10.8653 -10.8652 -10.8626 -10.8626 -10.8621
   -10.8598 -10.8598 -10.8588 -10.8585 -10.8574 -10.8563 -10.8555 -10.8555
    -9.4932  -9.2849  -9.2848  -9.0553  -8.4097  -8.3873  -8.3873  -8.2929
    -8.2643  -8.2643  -8.0218  -8.0218  -7.9937  -7.9730  -7.9592  -7.9574
    -7.9469  -7.9287  -7.6558  -7.6558  -6.9154  -6.6671  -6.6671  -6.6111
    -6.5812  -6.5565  -6.5564  -6.4704  -6.4000  -6.3814  -6.3616  -6.3616
     1.2630   1.3786   1.4501   1.4501   1.4900   1.7053   1.7978   1.7978
     2.0601   2.0601   2.2133   2.2190   3.6830   3.7244   3.7244   3.7702
     3.7702   3.8066   4.2236   4.2667   4.2844   4.3012   4.3251   4.3251
     4.5026   4.5026   4.5044   4.5641   5.0300   5.0941   5.1482   5.1482
     5.3496   5.5867   5.5867   5.5946   5.5947   5.6893   5.8619   5.9142
     6.1147   6.1147   6.3016   6.3223   6.3592   6.3900   6.3964   6.5311
     6.5674   6.5674   6.7060   6.8508   6.8508   6.8548   6.8548   7.2669
     7.3089   7.3405   7.3405   7.3443   7.5160   7.6208   7.6402   7.6402
     7.6421   7.6440   7.6563   7.6563   7.7312   7.7312   7.7743   7.7918
     7.7918   7.7948   7.8051   7.8326   7.8358   7.8399   7.8810   7.8810
     7.9433   7.9636   7.9977   7.9977   8.0172   8.1089   8.1089   8.1106
     8.1977   8.2497   8.2497   8.2541   8.4034   8.5375   8.5375   8.7183
    11.3309  12.0538  12.0538  12.5475  13.7960  13.9615  13.9679  13.9679
    14.2758  14.2771  14.2772  14.3029  14.3923  14.8201  14.8201  15.0579
    15.4865  15.5415  15.7058  15.7058  15.7951  15.7951  15.9213  15.9787
    16.6674  16.6674  16.7929  16.8960  18.1413  18.1413  18.1882  18.7306
    18.8905  19.0999  19.1137  19.1476  19.1690  19.1690  19.1730  19.1730
    19.5440  19.5839  19.5839  19.6075  19.6155  19.8803  19.9087  19.9478

          k =-0.3750 0.3750-0.3715 ( 31319 PWs)   bands (ev):

   -11.8946 -11.8946 -11.8891 -11.8777 -11.8768 -11.8294 -11.8294 -11.7953
   -11.7578 -11.7578 -11.7204 -11.7160 -11.5924 -11.5224 -11.5224 -11.4378
   -11.4226 -11.4184 -11.3717 -11.3717 -11.2133 -11.2116 -11.2114 -11.2114
   -11.2056 -11.2023 -11.2023 -11.1997 -11.1522 -11.0960 -11.0960 -11.0938
   -11.0690 -11.0625 -11.0624 -11.0621 -11.0314 -11.0209 -11.0209 -11.0120
   -10.9605 -10.9605 -10.9584 -10.9574 -10.9510 -10.9510 -10.9500 -10.9495
   -10.9491 -10.9396 -10.9396 -10.9329 -10.9189 -10.9153 -10.9153 -10.9123
   -10.9105 -10.9087 -10.9066 -10.9066 -10.9054 -10.9043 -10.9043 -10.9031
   -10.9014 -10.9014 -10.8999 -10.8993 -10.8951 -10.8930 -10.8930 -10.8926
   -10.8779 -10.8779 -10.8778 -10.8768 -10.8747 -10.8746 -10.8746 -10.8746
    -9.4097  -9.1923  -9.1923  -8.9562  -8.7361  -8.6126  -8.6126  -8.4468
    -8.1355  -8.1355  -7.9476  -7.8955  -7.8955  -7.8828  -7.8355  -7.7734
    -7.7313  -7.7125  -7.5179  -7.5179  -6.8639  -6.7855  -6.7534  -6.7102
    -6.7102  -6.6462  -6.6462  -6.4911  -6.4844  -6.4482  -6.4278  -6.4277
     1.3733   1.3869   1.4315   1.5050   1.5050   1.7818   1.7818   1.9444
     2.1566   2.3350   2.3350   2.6474   3.3605   3.5445   3.5445   3.8321
     3.8356   3.8356   3.9903   4.2970   4.5717   4.5776   4.5952   4.5952
     4.7765   4.7765   4.8240   4.8548   4.9839   4.9839   5.1637   5.2243
     5.2385   5.3200   5.3200   5.4344   5.5517   5.5537   5.5537   5.7545
     5.8473   5.8473   5.9226   6.1046   6.1563   6.2699   6.2954   6.3831
     6.4116   6.4116   6.6405   6.7372   6.7372   6.8302   6.8302   6.9879
     7.2312   7.2472   7.2624   7.3822   7.3822   7.4457   7.4718   7.4718
     7.5005   7.5018   7.5018   7.5862   7.6674   7.6674   7.7001   7.7462
     7.7462   7.8062   7.8245   7.8714   7.9183   7.9607   7.9607   8.0106
     8.0220   8.1170   8.1192   8.1192   8.1442   8.2127   8.2182   8.2182
     8.2495   8.2536   8.2536   8.2699   8.4923   8.5805   8.5805   8.7181
    11.7782  12.3925  12.3925  12.8061  13.8369  13.9309  13.9939  13.9939
    14.0171  14.2396  14.2396  14.3689  14.5798  14.8536  14.8536  15.1845
    15.9731  16.0412  16.1858  16.1858  16.2598  16.2598  16.3771  16.4089
    16.9014  16.9014  16.9627  17.0764  18.0770  18.0770  18.1250  18.4187
    18.4209  18.4696  18.5442  18.5442  18.6123  18.6714  18.6714  18.7195
    19.3815  19.3815  19.4697  19.5640  19.6743  19.7462  19.7516  19.7516

          k =-0.3750 0.3750-0.6191 ( 31333 PWs)   bands (ev):

   -11.8067 -11.7976 -11.7976 -11.7933 -11.7753 -11.7659 -11.7659 -11.7289
   -11.6417 -11.6417 -11.5785 -11.5747 -11.5652 -11.5510 -11.5510 -11.5195
   -11.5074 -11.4837 -11.4361 -11.4361 -11.3950 -11.3920 -11.3700 -11.3699
   -11.2583 -11.2116 -11.2116 -11.2082 -11.1764 -11.1384 -11.1384 -11.1023
   -11.0314 -11.0272 -11.0272 -11.0256 -11.0049 -11.0006 -11.0006 -10.9994
   -10.9844 -10.9832 -10.9831 -10.9789 -10.9663 -10.9663 -10.9659 -10.9629
   -10.9426 -10.9378 -10.9348 -10.9348 -10.9335 -10.9335 -10.9327 -10.9289
   -10.9200 -10.9176 -10.9176 -10.9155 -10.9147 -10.9140 -10.9118 -10.9118
   -10.9102 -10.9079 -10.9079 -10.9034 -10.9032 -10.8999 -10.8999 -10.8976
   -10.8971 -10.8966 -10.8966 -10.8959 -10.8955 -10.8931 -10.8930 -10.8928
    -9.2554  -9.0381  -9.0381  -9.0311  -8.8422  -8.8422  -8.8025  -8.6280
    -7.9686  -7.9686  -7.8854  -7.8692  -7.8692  -7.8534  -7.6815  -7.6071
    -7.4474  -7.4085  -7.2697  -7.2697  -7.0888  -7.0535  -6.9729  -6.9729
    -6.7611  -6.6213  -6.5993  -6.5993  -6.5216  -6.5215  -6.5189  -6.5136
     1.3486   1.3588   1.6168   1.6168   1.7113   1.7253   1.7253   1.9881
     2.3689   2.7637   2.7637   2.8765   3.1983   3.1983   3.2119   3.6538
     4.0476   4.0606   4.0606   4.3834   4.5664   4.5664   4.6614   4.6856
     4.9123   4.9123   4.9680   4.9681   5.0919   5.0982   5.2810   5.2810
     5.2944   5.3651   5.4134   5.4458   5.5180   5.6204   5.6311   5.6311
     5.7549   5.8075   5.8283   5.8367   5.8367   5.9478   6.0241   6.0241
     6.0285   6.2664   6.2985   6.4111   6.4532   6.4532   6.5598   6.5598
     6.9966   7.0644   7.2736   7.2736   7.3373   7.3374   7.3905   7.4621
     7.4914   7.5468   7.5757   7.6331   7.6331   7.6769   7.6769   7.7741
     7.8271   7.8271   7.8569   7.8796   7.9926   7.9926   8.0335   8.0898
     8.1439   8.1439   8.1459   8.1694   8.2013   8.2114   8.2114   8.2319
     8.4145   8.4145   8.4172   8.4219   8.5081   8.5458   8.5458   8.6241
    12.4900  12.9362  12.9362  13.2021  13.2575  13.5148  13.5148  13.5786
    14.2819  14.4031  14.5934  14.5934  14.8149  14.8149  14.9655  15.1888
    16.7657  16.8515  16.9772  16.9772  16.9903  16.9903  17.0923  17.1107
    17.2510  17.2957  17.2957  17.3972  17.7072  17.7127  17.7127  17.7327
    17.7596  17.7829  17.8659  17.8659  17.8707  17.8707  17.9923  18.0273
    19.2817  19.2817  19.4570  19.4682  19.4682  19.6328  19.7163  19.8822

     highest occupied, lowest unoccupied level (ev):     8.9617   10.1724

!    total energy              =   -3638.20964824 Ry
     Harris-Foulkes estimate   =   -3638.20964824 Ry
     estimated scf accuracy    <          4.6E-10 Ry

     The total energy is the sum of the following terms:

     one-electron contribution =   -1047.62267073 Ry
     hartree contribution      =     843.92620175 Ry
     xc contribution           =   -1001.54774178 Ry
     ewald contribution        =   -2432.96543749 Ry

     convergence has been achieved in  11 iterations

     Forces acting on atoms (Ry/au):

     atom    1 type  1   force =     0.00000000    0.00000000    0.00000000
     atom    2 type  1   force =     0.00000000    0.00000000    0.00000000
     atom    3 type  1   force =     0.00000000    0.00000000    0.00000000
     atom    4 type  1   force =     0.00000000    0.00000000    0.00000000
     atom    5 type  1   force =     0.00000000    0.00000000    0.00000000
     atom    6 type  1   force =     0.00000000    0.00000000    0.00000000
     atom    7 type  1   force =     0.00000000    0.00000000    0.00000000
     atom    8 type  1   force =     0.00000000    0.00000000    0.00000000
     atom    9 type  1   force =     0.00000165    0.00000165   -0.00000172
     atom   10 type  1   force =    -0.00000489    0.00000489   -0.00000747
     atom   11 type  1   force =     0.00000489   -0.00000489   -0.00000747
     atom   12 type  1   force =    -0.00000165   -0.00000165   -0.00000172
     atom   13 type  1   force =     0.00000165    0.00000165    0.00000172
     atom   14 type  1   force =    -0.00000489    0.00000489    0.00000747
     atom   15 type  1   force =     0.00000489   -0.00000489    0.00000747
     atom   16 type  1   force =    -0.00000165   -0.00000165    0.00000172
     atom   17 type  2   force =    -0.00250303   -0.00250303    0.00000000
     atom   18 type  2   force =    -0.00250313   -0.00250279    0.00000000
     atom   19 type  2   force =    -0.00250279   -0.00250313    0.00000000
     atom   20 type  2   force =    -0.00250316   -0.00250316    0.00000000
     atom   21 type  2   force =    -0.00250273   -0.00250273    0.00000000
     atom   22 type  2   force =    -0.00250299   -0.00250307    0.00000000
     atom   23 type  2   force =    -0.00250307   -0.00250299    0.00000000
     atom   24 type  2   force =    -0.00250333   -0.00250333    0.00000000
     atom   25 type  2   force =     0.00250316    0.00250316    0.00000000
     atom   26 type  2   force =     0.00250279    0.00250313    0.00000000
     atom   27 type  2   force =     0.00250313    0.00250279    0.00000000
     atom   28 type  2   force =     0.00250303    0.00250303    0.00000000
     atom   29 type  2   force =     0.00250333    0.00250333    0.00000000
     atom   30 type  2   force =     0.00250307    0.00250299    0.00000000
     atom   31 type  2   force =     0.00250299    0.00250307    0.00000000
     atom   32 type  2   force =     0.00250273    0.00250273    0.00000000
     atom   33 type  2   force =     0.00250300   -0.00250285   -0.00000015
     atom   34 type  2   force =     0.00250294   -0.00250294   -0.00000028
     atom   35 type  2   force =     0.00250282   -0.00250282   -0.00000010
     atom   36 type  2   force =     0.00250285   -0.00250300   -0.00000015
     atom   37 type  2   force =     0.00250300   -0.00250285    0.00000015
     atom   38 type  2   force =     0.00250294   -0.00250294    0.00000028
     atom   39 type  2   force =     0.00250282   -0.00250282    0.00000010
     atom   40 type  2   force =     0.00250285   -0.00250300    0.00000015
     atom   41 type  2   force =    -0.00250285    0.00250300   -0.00000015
     atom   42 type  2   force =    -0.00250282    0.00250282   -0.00000010
     atom   43 type  2   force =    -0.00250294    0.00250294   -0.00000028
     atom   44 type  2   force =    -0.00250300    0.00250285   -0.00000015
     atom   45 type  2   force =    -0.00250285    0.00250300    0.00000015
     atom   46 type  2   force =    -0.00250282    0.00250282    0.00000010
     atom   47 type  2   force =    -0.00250294    0.00250294    0.00000028
     atom   48 type  2   force =    -0.00250300    0.00250285    0.00000015

     Total force =     0.020024     Total SCF correction =     0.000047


     entering subroutine stress ...

          total   stress  (Ry/bohr**3)                   (kbar)     P=  -20.90
  -0.00015155   0.00000001   0.00000000        -22.29      0.00      0.00
   0.00000001  -0.00015155   0.00000000          0.00    -22.29      0.00
   0.00000000   0.00000000  -0.00012306          0.00      0.00    -18.10


     init_run     :    341.43s CPU    342.48s WALL (       1 calls)
     electrons    :  12564.65s CPU  12600.75s WALL (       1 calls)
     forces       :    257.38s CPU    257.66s WALL (       1 calls)
     stress       :    339.54s CPU    340.09s WALL (       1 calls)

     Called by init_run:
     wfcinit      :    321.26s CPU    322.09s WALL (       1 calls)
     potinit      :      2.29s CPU      2.30s WALL (       1 calls)

     Called by electrons:
     c_bands      :  11479.56s CPU  11509.84s WALL (      11 calls)
     sum_band     :   1004.52s CPU   1008.52s WALL (      11 calls)
     v_of_rho     :      6.34s CPU      6.47s WALL (      12 calls)
     newd         :     79.71s CPU     81.55s WALL (      12 calls)
     mix_rho      :      1.02s CPU      1.04s WALL (      11 calls)

     Called by c_bands:
     init_us_2    :     13.00s CPU     13.11s WALL (     450 calls)
     cegterg      :  11446.17s CPU  11476.26s WALL (     198 calls)

     Called by sum_band:
     sum_band:bec :      0.68s CPU      0.71s WALL (     198 calls)
     addusdens    :    113.40s CPU    115.14s WALL (      11 calls)

     Called by *egterg:
     h_psi        :   4443.31s CPU   4458.00s WALL (     927 calls)
     s_psi        :   1723.57s CPU   1723.77s WALL (     927 calls)
     g_psi        :      4.21s CPU      4.16s WALL (     711 calls)
     cdiaghg      :    770.16s CPU    770.31s WALL (     909 calls)

     Called by h_psi:
     add_vuspsi   :   1724.24s CPU   1724.49s WALL (     927 calls)

     General routines
     calbec       :   2543.06s CPU   2543.64s WALL (    1215 calls)
     fft          :      6.52s CPU      6.72s WALL (     213 calls)
     ffts         :      0.12s CPU      0.14s WALL (      23 calls)
     fftw         :    968.43s CPU    979.54s WALL (  318942 calls)
     interpolate  :      0.94s CPU      0.97s WALL (      23 calls)

     Parallel routines
     fft_scatter  :    141.05s CPU    143.63s WALL (  319178 calls)

     PWSCF        :     3h45m CPU        3h45m WALL


   This run was terminated on:  22:39:49  12May2018            

=------------------------------------------------------------------------------=
   JOB DONE.
=------------------------------------------------------------------------------=
