
     Program PWSCF v.5.4.0 starts on 12May2018 at 22:39:49 

     This program is part of the open-source Quantum ESPRESSO suite
     for quantum simulation of materials; please cite
         "P. Giannozzi et al., J. Phys.:Condens. Matter 21 395502 (2009);
          URL http://www.quantum-espresso.org", 
     in publications or presentations arising from this work. More details at
     http://www.quantum-espresso.org/quote

     Parallel version (MPI), running on     4 processors
     R & G space division:  proc/nbgrp/npool/nimage =       4
     Reading input from scf.in
Warning: card &IONS ignored
Warning: card     ION_DYNAMICS='DAMP' ignored
Warning: card     POT_EXTRAPOLATION='SECOND_ORDER' ignored
Warning: card     WFC_EXTRAPOLATION='SECOND_ORDER' ignored
Warning: card / ignored

     Current dimensions of program PWSCF are:
     Max number of different atomic species (ntypx) = 10
     Max number of k-points (npk) =  40000
     Max angular momentum in pseudopotentials (lmaxx) =  3
               file Sn.pbesol-dn-rrkjus.UPF: wavefunction(s)  5S 4D renormalized
               file O.pbesol-nl-rrkjus.UPF: wavefunction(s)  2S renormalized

     Subspace diagonalization in iterative solution of the eigenvalue problem:
     a serial algorithm will be used

     Found symmetry operation: I + ( -0.5000  0.0000  0.0000)
     This is a supercell, fractional translations are disabled

     Parallelization info
     --------------------
     sticks:   dense  smooth     PW     G-vecs:    dense   smooth      PW
     Min        3930    1573    421               249658    63125    8779
     Max        3931    1574    422               249661    63147    8782
     Sum       15721    6293   1685               998639   252553   35123



     bravais-lattice index     =            0
     lattice parameter (alat)  =      18.1500  a.u.
     unit-cell volume          =    4023.8794 (a.u.)^3
     number of atoms/cell      =           48
     number of atomic types    =            2
     number of electrons       =       416.00
     number of Kohn-Sham states=          256
     kinetic-energy cutoff     =      60.0000  Ry
     charge density cutoff     =     600.0000  Ry
     convergence threshold     =      2.0E-09
     mixing beta               =       0.7000
     number of iterations used =            8  plain     mixing
     Exchange-correlation      = PBESOL ( 1  4 10  8 0 0)

     celldm(1)=  18.150000  celldm(2)=   0.000000  celldm(3)=   0.000000
     celldm(4)=   0.000000  celldm(5)=   0.000000  celldm(6)=   0.000000

     crystal axes: (cart. coord. in units of alat)
               a(1) = (   1.000000   0.000000   0.000000 )  
               a(2) = (   0.000000   1.000000   0.000000 )  
               a(3) = (   0.000000   0.000000   0.673000 )  

     reciprocal axes: (cart. coord. in units 2 pi/alat)
               b(1) = (  1.000000  0.000000  0.000000 )  
               b(2) = (  0.000000  1.000000  0.000000 )  
               b(3) = (  0.000000  0.000000  1.485884 )  


     PseudoPot. # 1 for Sn read from file:
     /home/raja/pseudo/Sn.pbesol-dn-rrkjus.UPF
     MD5 check sum: b150398e14deaf400293d9009fcc5675
     Pseudo is Ultrasoft + core correction, Zval = 14.0
     Generated using "atomic" code by A. Dal Corso  v.5.4.0
     Using radial grid of 1243 points,  6 beta functions with: 
                l(1) =   0
                l(2) =   0
                l(3) =   1
                l(4) =   1
                l(5) =   2
                l(6) =   2
     Q(r) pseudized with 0 coefficients 


     PseudoPot. # 2 for  O read from file:
     /home/raja/pseudo/O.pbesol-nl-rrkjus.UPF
     MD5 check sum: c80495934389d02e713646931b6a7a51
     Pseudo is Ultrasoft + core correction, Zval =  6.0
     Generated using "atomic" code by A. Dal Corso  v.5.4.0
     Using radial grid of 1095 points,  4 beta functions with: 
                l(1) =   0
                l(2) =   0
                l(3) =   1
                l(4) =   1
     Q(r) pseudized with 0 coefficients 


     atomic species   valence    mass     pseudopotential
        Sn            14.00   118.71000     Sn( 1.00)
        O              6.00    15.99900      O( 1.00)

      8 Sym. Ops., with inversion, found



   Cartesian axes

     site n.     atom                  positions (alat units)
         1           Sn  tau(   1) = (   0.0000000   0.0000000   0.0000000  )
         2           Sn  tau(   2) = (   0.5000000   0.0000000   0.0000000  )
         3           Sn  tau(   3) = (   0.0000000   0.5000000   0.0000000  )
         4           Sn  tau(   4) = (   0.5000000   0.5000000   0.0000000  )
         5           Sn  tau(   5) = (   0.0000000   0.0000000   0.3365000  )
         6           Sn  tau(   6) = (   0.5000000   0.0000000   0.3365000  )
         7           Sn  tau(   7) = (   0.0000000   0.5000000   0.3365000  )
         8           Sn  tau(   8) = (   0.5000000   0.5000000   0.3365000  )
         9           Sn  tau(   9) = (   0.2500000   0.2500000   0.1682500  )
        10           Sn  tau(  10) = (   0.7500000   0.2500000   0.1682500  )
        11           Sn  tau(  11) = (   0.2500000   0.7500000   0.1682500  )
        12           Sn  tau(  12) = (   0.7500000   0.7500000   0.1682500  )
        13           Sn  tau(  13) = (   0.2500000   0.2500000   0.5047500  )
        14           Sn  tau(  14) = (   0.7500000   0.2500000   0.5047500  )
        15           Sn  tau(  15) = (   0.2500000   0.7500000   0.5047500  )
        16           Sn  tau(  16) = (   0.7500000   0.7500000   0.5047500  )
        17           O   tau(  17) = (   0.1535000   0.1535000   0.0000000  )
        18           O   tau(  18) = (   0.6535000   0.1535000   0.0000000  )
        19           O   tau(  19) = (   0.1535000   0.6535000   0.0000000  )
        20           O   tau(  20) = (   0.6535000   0.6535000   0.0000000  )
        21           O   tau(  21) = (   0.1535000   0.1535000   0.3365000  )
        22           O   tau(  22) = (   0.6535000   0.1535000   0.3365000  )
        23           O   tau(  23) = (   0.1535000   0.6535000   0.3365000  )
        24           O   tau(  24) = (   0.6535000   0.6535000   0.3365000  )
        25           O   tau(  25) = (   0.3465000   0.3465000   0.0000000  )
        26           O   tau(  26) = (   0.8465000   0.3465000   0.0000000  )
        27           O   tau(  27) = (   0.3465000   0.8465000   0.0000000  )
        28           O   tau(  28) = (   0.8465000   0.8465000   0.0000000  )
        29           O   tau(  29) = (   0.3465000   0.3465000   0.3365000  )
        30           O   tau(  30) = (   0.8465000   0.3465000   0.3365000  )
        31           O   tau(  31) = (   0.3465000   0.8465000   0.3365000  )
        32           O   tau(  32) = (   0.8465000   0.8465000   0.3365000  )
        33           O   tau(  33) = (   0.0965000   0.4035000   0.1682500  )
        34           O   tau(  34) = (   0.5965000   0.4035000   0.1682500  )
        35           O   tau(  35) = (   0.0965000   0.9035000   0.1682500  )
        36           O   tau(  36) = (   0.5965000   0.9035000   0.1682500  )
        37           O   tau(  37) = (   0.0965000   0.4035000   0.5047500  )
        38           O   tau(  38) = (   0.5965000   0.4035000   0.5047500  )
        39           O   tau(  39) = (   0.0965000   0.9035000   0.5047500  )
        40           O   tau(  40) = (   0.5965000   0.9035000   0.5047500  )
        41           O   tau(  41) = (   0.4035000   0.0965000   0.1682500  )
        42           O   tau(  42) = (   0.9035000   0.0965000   0.1682500  )
        43           O   tau(  43) = (   0.4035000   0.5965000   0.1682500  )
        44           O   tau(  44) = (   0.9035000   0.5965000   0.1682500  )
        45           O   tau(  45) = (   0.4035000   0.0965000   0.5047500  )
        46           O   tau(  46) = (   0.9035000   0.0965000   0.5047500  )
        47           O   tau(  47) = (   0.4035000   0.5965000   0.5047500  )
        48           O   tau(  48) = (   0.9035000   0.5965000   0.5047500  )

     number of k points=    18
                       cart. coord. in units 2pi/alat
        k(    1) = (   0.1250000   0.1250000   0.1238237), wk =   0.0833333
        k(    2) = (   0.1250000   0.1250000   0.3714710), wk =   0.0833333
        k(    3) = (   0.1250000   0.1250000   0.6191184), wk =   0.0833333
        k(    4) = (   0.1250000   0.3750000   0.1238237), wk =   0.1666667
        k(    5) = (   0.1250000   0.3750000   0.3714710), wk =   0.1666667
        k(    6) = (   0.1250000   0.3750000   0.6191184), wk =   0.1666667
        k(    7) = (   0.3750000   0.3750000   0.1238237), wk =   0.0833333
        k(    8) = (   0.3750000   0.3750000   0.3714710), wk =   0.0833333
        k(    9) = (   0.3750000   0.3750000   0.6191184), wk =   0.0833333
        k(   10) = (  -0.1250000   0.1250000  -0.1238237), wk =   0.0833333
        k(   11) = (  -0.1250000   0.1250000  -0.3714710), wk =   0.0833333
        k(   12) = (  -0.1250000   0.1250000  -0.6191184), wk =   0.0833333
        k(   13) = (  -0.1250000   0.3750000  -0.1238237), wk =   0.1666667
        k(   14) = (  -0.1250000   0.3750000  -0.3714710), wk =   0.1666667
        k(   15) = (  -0.1250000   0.3750000  -0.6191184), wk =   0.1666667
        k(   16) = (  -0.3750000   0.3750000  -0.1238237), wk =   0.0833333
        k(   17) = (  -0.3750000   0.3750000  -0.3714710), wk =   0.0833333
        k(   18) = (  -0.3750000   0.3750000  -0.6191184), wk =   0.0833333

     Dense  grid:   998639 G-vectors     FFT dimensions: ( 144, 144,  96)

     Smooth grid:   252553 G-vectors     FFT dimensions: (  90,  90,  64)

     Largest allocated arrays     est. size (Mb)     dimensions
        Kohn-Sham Wavefunctions        30.93 Mb     (    7917,  256)
        NL pseudopotentials            65.72 Mb     (    7917,  544)
        Each V/rho on FFT grid          7.59 Mb     (  497664)
        Each G-vector array             1.90 Mb     (  249660)
        G-vector shells                 0.34 Mb     (   44270)
     Largest temporary arrays     est. size (Mb)     dimensions
        Auxiliary wavefunctions       123.70 Mb     (    7917, 1024)
        Each subspace H/S matrix       16.00 Mb     (    1024, 1024)
        Each <psi_i|beta_j> matrix      2.12 Mb     (     544,  256)
        Arrays for rho mixing          60.75 Mb     (  497664,    8)

     Initial potential from superposition of free atoms

     starting charge  415.97986, renormalised to  416.00000
     Starting wfc are  272 randomized atomic wfcs

     total cpu time spent up to now is      344.6 secs

     per-process dynamical memory:   795.6 Mb

     Self-consistent Calculation

     iteration #  1     ecut=    60.00 Ry     beta=0.70
     Davidson diagonalization with overlap
     ethr =  1.00E-02,  avg # of iterations =  3.0

     total cpu time spent up to now is     1329.2 secs

     total energy              =   -3632.53933968 Ry
     Harris-Foulkes estimate   =   -3641.54311870 Ry
     estimated scf accuracy    <      11.99145979 Ry

     iteration #  2     ecut=    60.00 Ry     beta=0.70
     Davidson diagonalization with overlap
     ethr =  2.88E-03,  avg # of iterations =  3.6

     total cpu time spent up to now is     2672.1 secs

     total energy              =   -3635.39071607 Ry
     Harris-Foulkes estimate   =   -3642.18800568 Ry
     estimated scf accuracy    <      14.26850572 Ry

     iteration #  3     ecut=    60.00 Ry     beta=0.70
     Davidson diagonalization with overlap
     ethr =  2.88E-03,  avg # of iterations =  3.0

     total cpu time spent up to now is     3726.3 secs

     total energy              =   -3638.19044471 Ry
     Harris-Foulkes estimate   =   -3638.19816483 Ry
     estimated scf accuracy    <       0.04126903 Ry

     iteration #  4     ecut=    60.00 Ry     beta=0.70
     Davidson diagonalization with overlap
     ethr =  9.92E-06,  avg # of iterations =  7.1

     total cpu time spent up to now is     5350.7 secs

     total energy              =   -3638.20692371 Ry
     Harris-Foulkes estimate   =   -3638.20723481 Ry
     estimated scf accuracy    <       0.00097040 Ry

     iteration #  5     ecut=    60.00 Ry     beta=0.70
     Davidson diagonalization with overlap
     c_bands:  1 eigenvalues not converged
     c_bands:  1 eigenvalues not converged
     c_bands:  1 eigenvalues not converged
     ethr =  2.33E-07,  avg # of iterations =  8.6

     total cpu time spent up to now is     6507.1 secs

     total energy              =   -3638.20707892 Ry
     Harris-Foulkes estimate   =   -3638.20707845 Ry
     estimated scf accuracy    <       0.00006833 Ry

     iteration #  6     ecut=    60.00 Ry     beta=0.70
     Davidson diagonalization with overlap
     ethr =  1.64E-08,  avg # of iterations =  3.5

     total cpu time spent up to now is     7627.6 secs

     total energy              =   -3638.20708410 Ry
     Harris-Foulkes estimate   =   -3638.20709869 Ry
     estimated scf accuracy    <       0.00003292 Ry

     iteration #  7     ecut=    60.00 Ry     beta=0.70
     Davidson diagonalization with overlap
     ethr =  7.91E-09,  avg # of iterations =  3.1

     total cpu time spent up to now is     8626.8 secs

     total energy              =   -3638.20709202 Ry
     Harris-Foulkes estimate   =   -3638.20709452 Ry
     estimated scf accuracy    <       0.00000730 Ry

     iteration #  8     ecut=    60.00 Ry     beta=0.70
     Davidson diagonalization with overlap
     ethr =  1.75E-09,  avg # of iterations =  2.0

     total cpu time spent up to now is     9555.9 secs

     total energy              =   -3638.20709328 Ry
     Harris-Foulkes estimate   =   -3638.20709329 Ry
     estimated scf accuracy    <       0.00000003 Ry

     iteration #  9     ecut=    60.00 Ry     beta=0.70
     Davidson diagonalization with overlap
     ethr =  7.83E-12,  avg # of iterations =  3.0

     total cpu time spent up to now is    11028.2 secs

     total energy              =   -3638.20709330 Ry
     Harris-Foulkes estimate   =   -3638.20709331 Ry
     estimated scf accuracy    <       0.00000004 Ry

     iteration # 10     ecut=    60.00 Ry     beta=0.70
     Davidson diagonalization with overlap
     ethr =  7.83E-12,  avg # of iterations =  2.8

     total cpu time spent up to now is    12001.2 secs

     End of self-consistent calculation

          k = 0.1250 0.1250 0.1238 ( 31549 PWs)   bands (ev):

   -12.1267 -12.0675 -12.0674 -12.0500 -12.0500 -11.9463 -11.9366 -11.9143
   -11.9036 -11.9021 -11.8919 -11.8919 -11.8767 -11.7575 -11.7575 -11.5139
   -11.4931 -11.4682 -11.4471 -11.3923 -11.2703 -11.2702 -11.2521 -11.2521
   -11.2502 -11.2502 -11.2413 -11.2372 -11.2344 -11.2328 -11.2328 -11.2322
   -11.2298 -11.2152 -11.2112 -11.2040 -11.2040 -11.1953 -11.1953 -11.1482
   -11.1079 -11.1036 -11.1035 -11.1010 -11.1008 -11.1006 -11.1006 -11.0990
   -11.0984 -11.0766 -11.0765 -11.0673 -11.0644 -11.0624 -11.0623 -11.0598
   -11.0510 -11.0508 -11.0507 -11.0505 -11.0503 -11.0486 -11.0486 -11.0360
   -11.0195 -11.0112 -11.0112 -11.0102 -11.0101 -11.0087 -11.0080 -11.0064
   -11.0053 -11.0043 -11.0042 -11.0032 -11.0031 -11.0031 -11.0000 -10.9999
    -9.7753  -9.2058  -9.2058  -8.8686  -8.8685  -8.4928  -8.4631  -8.4630
    -8.4522  -8.3613  -8.3612  -8.1274  -8.0982  -8.0931  -8.0340  -7.9982
    -7.9940  -7.9687  -7.7318  -7.2449  -7.2449  -6.9276  -6.9276  -6.7634
    -6.7207  -6.6926  -6.6562  -6.5316  -6.5316  -6.5014  -6.5013  -6.4583
     0.8559   1.0190   1.0722   1.4475   1.8146   1.8146   1.9932   1.9932
     2.0075   2.0555   2.0555   2.7681   2.7681   3.0652   3.3000   3.4566
     3.4566   3.6323   3.6323   4.0279   4.0289   4.6079   4.7084   4.7205
     4.7206   4.7673   4.7805   4.8214   4.8214   4.9205   5.0299   5.0651
     5.2263   5.2727   5.3543   5.3543   5.6077   5.7078   5.7078   5.8709
     5.9400   5.9454   5.9454   5.9693   6.2387   6.3046   6.3919   6.4098
     6.4098   6.5895   6.6439   6.7734   6.7734   6.8413   6.9150   6.9625
     7.0414   7.0943   7.0943   7.1570   7.1765   7.1765   7.2532   7.2533
     7.5357   7.5386   7.5593   7.5883   7.6198   7.6198   7.6217   7.6494
     7.6494   7.6887   7.7145   7.7927   7.7927   7.8860   7.8860   7.9273
     7.9354   7.9923   8.0300   8.0300   8.0307   8.0594   8.0769   8.0942
     8.1284   8.1284   8.1695   8.2330   8.2330   8.3176   8.3177   8.8408
     9.9673  12.4392  12.4392  13.0971  13.2440  13.2440  13.2490  13.3555
    13.3863  14.2749  14.4887  14.5749  14.5749  14.7632  14.7632  14.8037
    14.9879  14.9886  15.6082  15.6082  15.6758  15.6758  16.0034  16.0101
    16.5060  16.5060  16.7767  16.7767  17.3265  17.5081  17.7147  18.3733
    18.6739  18.9723  19.1093  19.1717  19.1717  19.2648  19.2808  19.3021
    19.3021  19.3280  19.3280  19.3717  19.3828  19.3828  19.4047  19.4187

          k = 0.1250 0.1250 0.3715 ( 31592 PWs)   bands (ev):

   -12.0677 -12.0067 -12.0066 -11.9865 -11.9865 -11.8780 -11.8734 -11.8560
   -11.8559 -11.8446 -11.8398 -11.8298 -11.8206 -11.7329 -11.7329 -11.6382
   -11.5392 -11.4863 -11.4144 -11.3470 -11.3456 -11.3430 -11.3386 -11.3386
   -11.3371 -11.3354 -11.3353 -11.3165 -11.3165 -11.3099 -11.2464 -11.2464
   -11.2148 -11.1967 -11.1929 -11.1847 -11.1846 -11.1700 -11.1700 -11.1500
   -11.1034 -11.1030 -11.1030 -11.0977 -11.0977 -11.0907 -11.0892 -11.0892
   -11.0876 -11.0740 -11.0740 -11.0706 -11.0653 -11.0627 -11.0616 -11.0612
   -11.0611 -11.0568 -11.0568 -11.0533 -11.0521 -11.0514 -11.0513 -11.0492
   -11.0472 -11.0438 -11.0390 -11.0390 -11.0376 -11.0364 -11.0363 -11.0363
   -11.0218 -11.0218 -11.0206 -11.0206 -11.0202 -11.0199 -11.0198 -11.0196
    -9.6997  -9.1056  -9.1056  -8.9037  -8.7518  -8.7518  -8.6053  -8.6053
    -8.3990  -8.3530  -8.3530  -8.1326  -8.1125  -8.0411  -7.9036  -7.8212
    -7.8044  -7.6263  -7.5334  -7.1496  -7.1496  -6.9349  -6.8783  -6.8782
    -6.8721  -6.8593  -6.7905  -6.6231  -6.6231  -6.5674  -6.5674  -6.5431
     0.8496   1.0971   1.2759   1.3325   1.8661   1.8662   2.0644   2.0644
     2.2287   2.2287   2.7497   2.7792   2.7792   2.7833   2.9401   3.5358
     3.5358   3.7187   3.7188   4.3199   4.3199   4.5035   4.6626   4.7150
     4.7150   4.9472   4.9473   4.9535   4.9535   4.9903   5.0264   5.0264
     5.0447   5.0759   5.1117   5.1348   5.1814   5.4471   5.4999   5.7696
     5.9407   6.0118   6.0158   6.1003   6.1260   6.2685   6.2685   6.3010
     6.3469   6.4508   6.4634   6.5688   6.5689   6.7840   6.7840   6.8057
     6.8187   6.9201   7.0623   7.1156   7.1687   7.1687   7.2166   7.2166
     7.3036   7.3036   7.4431   7.4431   7.5416   7.5416   7.6680   7.6680
     7.7452   7.8403   7.8450   7.8497   7.9031   7.9031   7.9249   7.9345
     7.9742   7.9742   7.9758   8.0419   8.0809   8.1089   8.1216   8.1296
     8.1360   8.1360   8.1817   8.1864   8.1864   8.2935   8.2935   8.7477
    10.7358  12.7657  12.7658  13.2518  13.3981  13.4236  13.4807  13.5422
    13.5422  13.5999  14.2824  14.2824  14.6733  14.6733  14.7759  15.1619
    15.5253  15.5421  16.0977  16.0977  16.1546  16.1546  16.3915  16.3922
    16.7727  16.7727  16.9892  16.9892  17.3721  17.4206  17.5712  18.0026
    18.2189  18.3056  18.6049  18.6049  18.7169  18.7169  18.9181  18.9181
    18.9308  18.9308  18.9625  19.0385  19.1808  19.2121  19.3166  19.4379

          k = 0.1250 0.1250 0.6191 ( 31646 PWs)   bands (ev):

   -11.9620 -11.9086 -11.9085 -11.8754 -11.8754 -11.8460 -11.8394 -11.8394
   -11.7681 -11.7631 -11.7631 -11.7559 -11.7299 -11.7015 -11.6928 -11.6784
   -11.6261 -11.5465 -11.5299 -11.5231 -11.5164 -11.4987 -11.4134 -11.4134
   -11.3869 -11.3869 -11.3623 -11.3623 -11.2992 -11.2992 -11.2921 -11.2607
   -11.1741 -11.1603 -11.1578 -11.1577 -11.1577 -11.1553 -11.1492 -11.1492
   -11.1231 -11.1231 -11.1208 -11.1200 -11.1200 -11.1105 -11.1094 -11.1067
   -11.0949 -11.0842 -11.0712 -11.0712 -11.0695 -11.0695 -11.0695 -11.0661
   -11.0660 -11.0645 -11.0629 -11.0629 -11.0621 -11.0603 -11.0603 -11.0595
   -11.0567 -11.0546 -11.0489 -11.0489 -11.0447 -11.0447 -11.0431 -11.0430
   -11.0427 -11.0416 -11.0394 -11.0382 -11.0382 -11.0367 -11.0357 -11.0357
    -9.5382  -9.2743  -8.9486  -8.9486  -8.7744  -8.7744  -8.5821  -8.5821
    -8.4326  -8.4326  -8.2860  -8.1973  -8.0875  -8.0607  -7.5846  -7.5411
    -7.4930  -7.4097  -7.3256  -7.2329  -7.1497  -7.1286  -6.9822  -6.9822
    -6.8868  -6.7881  -6.7881  -6.7874  -6.7874  -6.7104  -6.6739  -6.6739
     0.8555   0.9174   1.7342   1.8018   1.9746   1.9746   2.0503   2.0504
     2.2877   2.3828   2.5406   2.5406   2.7386   2.7386   3.6554   3.7491
     3.7492   3.8734   3.8734   4.1591   4.1591   4.2611   4.2611   4.4646
     4.4943   4.7176   4.8335   4.8365   5.1394   5.2662   5.3040   5.3074
     5.3509   5.3893   5.4100   5.4100   5.4639   5.4639   5.4659   5.5629
     5.6285   5.7145   5.8046   5.8094   5.9566   5.9566   6.0561   6.0561
     6.0876   6.1504   6.2610   6.3043   6.4849   6.4893   6.5134   6.5162
     6.7201   6.7305   7.0324   7.0324   7.2502   7.2502   7.3000   7.3000
     7.3462   7.3462   7.4284   7.4284   7.5111   7.5111   7.5738   7.5738
     7.7990   7.7990   7.8392   7.8993   7.9752   7.9941   7.9941   8.0035
     8.0089   8.0124   8.0565   8.0713   8.0930   8.0930   8.1041   8.1292
     8.1718   8.1719   8.1798   8.1801   8.2369   8.2369   8.2721   8.5547
    11.7556  12.7491  13.2816  13.2816  13.4256  13.4823  13.5528  13.5754
    13.8263  13.8263  13.9896  13.9896  14.4065  14.4065  15.1254  15.2883
    16.4049  16.4335  16.8783  16.8783  16.8997  16.8998  16.9779  16.9808
    17.1942  17.1942  17.2585  17.2742  17.2742  17.3987  17.4089  17.4189
    17.4595  17.5007  17.9021  17.9021  17.9239  17.9239  18.3324  18.3324
    18.3932  18.3932  18.6241  18.6953  19.0094  19.1243  19.3688  19.5329

          k = 0.1250 0.3750 0.1238 ( 31554 PWs)   bands (ev):

   -12.0855 -12.0513 -12.0492 -12.0055 -12.0052 -12.0039 -12.0010 -11.9995
   -11.9450 -11.9378 -11.9079 -11.9006 -11.8346 -11.7884 -11.6232 -11.5194
   -11.4519 -11.4465 -11.3538 -11.3511 -11.3509 -11.3179 -11.2665 -11.2509
   -11.2508 -11.2488 -11.2467 -11.2453 -11.2440 -11.2428 -11.2375 -11.2373
   -11.2224 -11.2134 -11.2131 -11.2082 -11.2045 -11.1985 -11.1849 -11.1679
   -11.1053 -11.1050 -11.1034 -11.1029 -11.1025 -11.1023 -11.1016 -11.1014
   -11.1006 -11.0904 -11.0740 -11.0707 -11.0627 -11.0621 -11.0573 -11.0540
   -11.0512 -11.0511 -11.0500 -11.0496 -11.0494 -11.0491 -11.0486 -11.0408
   -11.0152 -11.0102 -11.0100 -11.0090 -11.0077 -11.0075 -11.0071 -11.0071
   -11.0070 -11.0055 -11.0052 -11.0045 -11.0044 -11.0035 -11.0023 -11.0005
    -9.6769  -9.4832  -9.0736  -8.8260  -8.7241  -8.5108  -8.4977  -8.4801
    -8.4594  -8.3849  -8.2485  -8.2401  -8.2127  -8.1927  -8.1064  -8.0634
    -7.8403  -7.7364  -7.5699  -7.4250  -7.3700  -7.0848  -6.7117  -6.6741
    -6.6667  -6.6220  -6.6128  -6.5984  -6.5842  -6.5359  -6.5220  -6.5193
     1.0638   1.1546   1.3079   1.4532   1.4721   1.5078   1.6331   1.6763
     2.0411   2.0658   2.2740   2.6517   2.9450   3.1976   3.5443   3.6185
     3.8475   4.0170   4.0304   4.0836   4.0854   4.0906   4.2820   4.4436
     4.5911   4.6756   4.6872   4.8826   4.9324   4.9648   4.9962   5.0838
     5.1580   5.1722   5.2314   5.3181   5.4970   5.5503   5.5869   5.6580
     5.8095   5.8511   6.0922   6.0962   6.1033   6.2737   6.4041   6.4350
     6.6025   6.7777   6.7976   6.9372   6.9533   6.9995   7.0327   7.0633
     7.1000   7.1438   7.2221   7.2320   7.2830   7.3000   7.4560   7.4977
     7.5046   7.5121   7.5459   7.5652   7.5788   7.5839   7.6133   7.6294
     7.6337   7.6426   7.6435   7.6880   7.7834   7.7885   7.8010   7.8084
     7.8181   7.8579   7.9015   7.9556   7.9781   8.0033   8.0304   8.0399
     8.0834   8.1557   8.1683   8.1753   8.1957   8.2587   8.4921   8.7052
    10.6391  11.5309  12.6056  12.8580  13.2718  13.2935  13.6101  13.7173
    13.8589  14.0772  14.2601  14.2728  14.3165  14.4116  14.8359  14.8530
    15.1151  15.2203  15.3579  15.5004  15.7330  15.7781  15.8969  15.9189
    16.6650  16.7556  17.0823  17.1611  17.2795  17.3297  17.5482  17.9638
    18.8916  19.0468  19.0968  19.1070  19.1241  19.1652  19.1701  19.2261
    19.2584  19.3581  19.3673  19.3711  19.3714  19.4196  19.5756  19.5973

          k = 0.1250 0.3750 0.3715 ( 31574 PWs)   bands (ev):

   -12.0305 -11.9914 -11.9894 -11.9582 -11.9427 -11.9423 -11.9402 -11.9353
   -11.8767 -11.8688 -11.8575 -11.8559 -11.7869 -11.7536 -11.6039 -11.5465
   -11.4893 -11.4881 -11.4257 -11.3910 -11.3835 -11.3452 -11.3426 -11.3419
   -11.3416 -11.3412 -11.3377 -11.3323 -11.3317 -11.2923 -11.2643 -11.2310
   -11.2092 -11.1986 -11.1956 -11.1903 -11.1848 -11.1756 -11.1577 -11.1509
   -11.1025 -11.1007 -11.0974 -11.0966 -11.0964 -11.0959 -11.0924 -11.0923
   -11.0896 -11.0871 -11.0719 -11.0688 -11.0668 -11.0623 -11.0613 -11.0609
   -11.0556 -11.0542 -11.0541 -11.0512 -11.0511 -11.0496 -11.0472 -11.0466
   -11.0451 -11.0443 -11.0427 -11.0421 -11.0409 -11.0385 -11.0367 -11.0363
   -11.0218 -11.0216 -11.0211 -11.0206 -11.0202 -11.0198 -11.0189 -11.0186
    -9.5980  -9.3961  -8.9721  -8.8704  -8.7787  -8.7249  -8.6112  -8.5003
    -8.3740  -8.3586  -8.3204  -8.2498  -8.1079  -8.0517  -8.0320  -7.7508
    -7.6736  -7.6237  -7.4346  -7.3248  -7.2886  -7.0229  -6.8627  -6.8178
    -6.7360  -6.7274  -6.7210  -6.6744  -6.6674  -6.6191  -6.5809  -6.5685
     1.0625   1.2413   1.3764   1.4769   1.5117   1.5466   1.6080   1.8891
     2.2331   2.5075   2.5091   2.6721   2.8549   2.9415   3.5526   3.6540
     3.9431   4.0334   4.1579   4.2105   4.2482   4.3525   4.3766   4.6162
     4.7276   4.7299   4.7785   4.8454   4.8474   4.9261   4.9442   4.9880
     5.0535   5.0538   5.0625   5.1275   5.2537   5.2554   5.4899   5.5047
     5.5679   5.9243   5.9620   6.1295   6.1422   6.2549   6.3891   6.4231
     6.4253   6.4432   6.6507   6.7515   6.8087   6.8393   6.8944   6.9432
     6.9803   7.0193   7.0210   7.1292   7.2025   7.2048   7.2743   7.2909
     7.3330   7.4175   7.4594   7.4695   7.4807   7.5241   7.5813   7.6254
     7.6671   7.7462   7.7730   7.7974   7.8056   7.8213   7.8322   7.8621
     7.9268   7.9844   7.9926   8.0038   8.0541   8.1022   8.1063   8.1168
     8.1288   8.1653   8.1723   8.1731   8.2371   8.2940   8.4845   8.6591
    11.1985  11.9364  12.8779  13.0608  13.4822  13.5231  13.6044  13.7061
    13.7810  13.9338  13.9537  14.1583  14.2551  14.5658  14.9687  15.1136
    15.6400  15.7221  15.8610  15.9771  16.1945  16.2315  16.3182  16.3305
    16.8394  16.9439  17.1099  17.2090  17.3770  17.4289  17.5991  17.9213
    18.1881  18.3853  18.4160  18.5267  18.5938  18.7136  18.7236  18.7682
    18.9585  19.0183  19.0530  19.0876  19.1553  19.1951  19.4311  19.7247

          k = 0.1250 0.3750 0.6191 ( 31574 PWs)   bands (ev):

   -11.9410 -11.9115 -11.8997 -11.8880 -11.8863 -11.8406 -11.8351 -11.8233
   -11.8164 -11.7933 -11.7663 -11.7510 -11.7444 -11.7334 -11.6761 -11.5998
   -11.5896 -11.5488 -11.4990 -11.4980 -11.4932 -11.4620 -11.4510 -11.4489
   -11.4454 -11.4388 -11.3931 -11.3489 -11.3202 -11.2965 -11.2474 -11.2409
   -11.1715 -11.1658 -11.1612 -11.1600 -11.1539 -11.1505 -11.1467 -11.1438
   -11.1240 -11.1226 -11.1200 -11.1160 -11.1146 -11.1140 -11.1125 -11.1086
   -11.0900 -11.0819 -11.0817 -11.0765 -11.0706 -11.0698 -11.0691 -11.0657
   -11.0639 -11.0637 -11.0634 -11.0605 -11.0601 -11.0598 -11.0592 -11.0556
   -11.0545 -11.0518 -11.0515 -11.0510 -11.0476 -11.0451 -11.0424 -11.0416
   -11.0410 -11.0408 -11.0406 -11.0402 -11.0395 -11.0380 -11.0358 -11.0346
    -9.4417  -9.2430  -9.2001  -9.0357  -8.8173  -8.6525  -8.5796  -8.4522
    -8.4388  -8.3185  -8.2352  -8.1807  -8.1477  -8.0430  -7.7983  -7.6488
    -7.4013  -7.3944  -7.2033  -7.1431  -7.1306  -7.1187  -7.0824  -6.9414
    -6.9263  -6.9233  -6.9061  -6.7576  -6.7172  -6.6692  -6.6546  -6.6418
     1.0678   1.1093   1.4746   1.4768   1.7618   1.8640   1.9743   2.1035
     2.1907   2.2478   2.4869   2.6163   3.0662   3.4549   3.4561   3.8323
     4.0486   4.0908   4.0998   4.2393   4.2563   4.3847   4.4246   4.4914
     4.5183   4.5400   4.6445   4.7666   4.8417   4.8433   4.8651   5.0232
     5.0425   5.2137   5.3494   5.3900   5.4073   5.4559   5.5379   5.6011
     5.6071   5.7062   5.7870   5.8003   5.8978   5.9102   5.9875   6.1464
     6.1497   6.2685   6.4508   6.4941   6.6557   6.7484   6.7753   6.7819
     6.8199   6.9494   6.9861   7.0716   7.0799   7.0805   7.1049   7.2398
     7.2644   7.3144   7.3416   7.4201   7.4666   7.6175   7.6234   7.6300
     7.6505   7.6980   7.8056   7.8280   7.8364   7.9218   7.9694   7.9993
     8.0155   8.0292   8.0589   8.0763   8.0994   8.1091   8.1262   8.1296
     8.2018   8.2283   8.2723   8.2758   8.2846   8.2914   8.4182   8.5230
    12.0425  12.5847  12.9253  13.2925  13.2943  13.3365  13.5338  13.6861
    13.7087  13.8132  13.8736  14.1422  14.5741  14.8849  14.9537  15.1721
    16.4876  16.5388  16.6921  16.7050  16.9137  16.9475  16.9588  16.9762
    17.1539  17.1844  17.2569  17.3494  17.3515  17.3973  17.4170  17.4831
    17.5019  17.6060  17.6431  17.7356  17.9872  17.9891  18.2211  18.2424
    18.4825  18.5745  18.7597  18.8666  18.8686  19.0705  19.3732  19.7107

          k = 0.3750 0.3750 0.1238 ( 31564 PWs)   bands (ev):

   -12.0675 -12.0675 -12.0542 -12.0517 -12.0485 -11.9917 -11.9917 -11.9607
   -11.9415 -11.9415 -11.9112 -11.9068 -11.7497 -11.6712 -11.6712 -11.5735
   -11.4913 -11.4898 -11.4444 -11.4443 -11.2642 -11.2516 -11.2515 -11.2510
   -11.2489 -11.2482 -11.2378 -11.2378 -11.2338 -11.2329 -11.2266 -11.2266
   -11.2241 -11.2195 -11.2175 -11.2175 -11.1956 -11.1885 -11.1885 -11.1776
   -11.1062 -11.1061 -11.1053 -11.1047 -11.1028 -11.1025 -11.1024 -11.1019
   -11.0959 -11.0861 -11.0860 -11.0790 -11.0564 -11.0558 -11.0537 -11.0537
   -11.0527 -11.0520 -11.0520 -11.0487 -11.0484 -11.0484 -11.0483 -11.0445
   -11.0125 -11.0113 -11.0112 -11.0103 -11.0099 -11.0079 -11.0079 -11.0074
   -11.0047 -11.0047 -11.0041 -11.0035 -11.0031 -11.0018 -11.0010 -11.0010
    -9.5710  -9.3649  -9.3649  -9.1388  -8.4991  -8.4763  -8.4763  -8.3849
    -8.3583  -8.3582  -8.1226  -8.1226  -8.1001  -8.0677  -8.0617  -8.0607
    -8.0486  -8.0245  -7.7619  -7.7618  -7.0401  -6.7978  -6.7978  -6.7428
    -6.7135  -6.6896  -6.6896  -6.6061  -6.5373  -6.5190  -6.4998  -6.4997
     1.1769   1.2812   1.3611   1.3611   1.3999   1.6124   1.6981   1.6981
     1.9601   1.9601   2.1106   2.1146   3.5660   3.6161   3.6161   3.6806
     3.6806   3.7171   4.1171   4.1777   4.1991   4.2036   4.2334   4.2334
     4.4107   4.4142   4.4142   4.4753   4.9368   5.0003   5.0518   5.0519
     5.2501   5.4794   5.4794   5.4929   5.4929   5.5866   5.7505   5.8057
     6.0046   6.0047   6.1844   6.2274   6.2447   6.2748   6.2839   6.4200
     6.4679   6.4679   6.6044   6.7360   6.7360   6.7361   6.7361   7.1506
     7.1899   7.2206   7.2210   7.2210   7.4117   7.5019   7.5181   7.5210
     7.5312   7.5312   7.5327   7.5327   7.6159   7.6159   7.6505   7.6680
     7.6680   7.6712   7.6971   7.7159   7.7203   7.7300   7.7697   7.7698
     7.8337   7.8338   7.8868   7.8868   7.9061   7.9859   7.9859   8.0001
     8.0831   8.1342   8.1342   8.1384   8.2874   8.4204   8.4204   8.5996
    11.1282  11.8491  11.8491  12.3409  13.5898  13.7524  13.7638  13.7638
    14.0647  14.0647  14.0760  14.0948  14.1778  14.6060  14.6060  14.8396
    15.3180  15.3677  15.5362  15.5363  15.6204  15.6204  15.7498  15.7994
    16.4776  16.4776  16.6050  16.7079  17.9515  17.9515  18.0117  18.5428
    18.6996  18.9068  18.9213  18.9469  18.9684  18.9684  18.9859  18.9859
    19.3507  19.3873  19.3873  19.4090  19.4178  19.6741  19.6966  19.7393

          k = 0.3750 0.3750 0.3715 ( 31577 PWs)   bands (ev):

   -12.0066 -12.0066 -12.0008 -11.9900 -11.9894 -11.9423 -11.9422 -11.9085
   -11.8733 -11.8733 -11.8371 -11.8330 -11.7108 -11.6437 -11.6437 -11.5619
   -11.5473 -11.5430 -11.4981 -11.4981 -11.3459 -11.3442 -11.3440 -11.3440
   -11.3374 -11.3338 -11.3337 -11.3311 -11.2870 -11.2338 -11.2337 -11.2318
   -11.2083 -11.2020 -11.2020 -11.2017 -11.1719 -11.1619 -11.1619 -11.1528
   -11.1021 -11.1020 -11.0999 -11.0992 -11.0930 -11.0929 -11.0921 -11.0920
   -11.0919 -11.0832 -11.0832 -11.0766 -11.0628 -11.0596 -11.0596 -11.0567
   -11.0553 -11.0526 -11.0514 -11.0513 -11.0493 -11.0486 -11.0486 -11.0478
   -11.0459 -11.0459 -11.0447 -11.0443 -11.0394 -11.0374 -11.0374 -11.0371
   -11.0223 -11.0223 -11.0222 -11.0212 -11.0192 -11.0192 -11.0191 -11.0190
    -9.4881  -9.2740  -9.2740  -9.0422  -8.8199  -8.6987  -8.6986  -8.5375
    -8.2341  -8.2341  -8.0546  -7.9995  -7.9995  -7.9882  -7.9404  -7.8745
    -7.8334  -7.8206  -7.6274  -7.6273  -6.9898  -6.9129  -6.8816  -6.8396
    -6.8395  -6.7774  -6.7774  -6.6263  -6.6196  -6.5842  -6.5644  -6.5643
     1.2765   1.2950   1.3413   1.4126   1.4127   1.6822   1.6822   1.8509
     2.0525   2.2359   2.2359   2.5444   3.2509   3.4391   3.4391   3.7430
     3.7453   3.7453   3.8889   4.1994   4.4792   4.4887   4.4982   4.4982
     4.6850   4.6850   4.7243   4.7625   4.8879   4.8879   5.0686   5.1287
     5.1354   5.2148   5.2148   5.3252   5.4450   5.4491   5.4491   5.6456
     5.7415   5.7415   5.8110   5.9954   6.0457   6.1731   6.1783   6.2793
     6.3081   6.3081   6.5330   6.6202   6.6202   6.7188   6.7188   6.8704
     7.1096   7.1312   7.1596   7.2671   7.2672   7.3297   7.3659   7.3659
     7.3786   7.3786   7.3863   7.4625   7.5512   7.5512   7.5915   7.6267
     7.6267   7.6882   7.7123   7.7509   7.7892   7.8442   7.8442   7.8888
     7.9085   8.0010   8.0010   8.0038   8.0339   8.0978   8.1032   8.1032
     8.1363   8.1378   8.1378   8.1535   8.3740   8.4621   8.4621   8.5991
    11.5733  12.1856  12.1856  12.5977  13.6266  13.7170  13.7810  13.7811
    13.8076  14.0312  14.0312  14.1582  14.3740  14.6384  14.6384  14.9661
    15.8024  15.8638  16.0133  16.0134  16.0818  16.0818  16.2029  16.2266
    16.7113  16.7114  16.7746  16.8882  17.8873  17.8874  17.9428  18.2313
    18.2358  18.2785  18.3481  18.3482  18.4167  18.4859  18.4859  18.5317
    19.1819  19.1819  19.2756  19.3620  19.4800  19.5363  19.5445  19.5445

          k = 0.3750 0.3750 0.6191 ( 31563 PWs)   bands (ev):

   -11.9208 -11.9121 -11.9121 -11.9080 -11.8903 -11.8811 -11.8811 -11.8448
   -11.7602 -11.7602 -11.6990 -11.6954 -11.6846 -11.6717 -11.6717 -11.6408
   -11.6285 -11.6066 -11.5600 -11.5599 -11.5211 -11.5183 -11.4966 -11.4966
   -11.3878 -11.3426 -11.3426 -11.3401 -11.3094 -11.2733 -11.2733 -11.2396
   -11.1718 -11.1677 -11.1677 -11.1662 -11.1464 -11.1423 -11.1423 -11.1408
   -11.1258 -11.1246 -11.1246 -11.1207 -11.1086 -11.1086 -11.1081 -11.1054
   -11.0858 -11.0810 -11.0784 -11.0783 -11.0765 -11.0765 -11.0756 -11.0728
   -11.0635 -11.0612 -11.0612 -11.0597 -11.0580 -11.0573 -11.0552 -11.0552
   -11.0545 -11.0522 -11.0522 -11.0479 -11.0478 -11.0446 -11.0446 -11.0422
   -11.0413 -11.0404 -11.0404 -11.0396 -11.0394 -11.0374 -11.0373 -11.0372
    -9.3343  -9.1212  -9.1212  -9.1112  -8.9263  -8.9263  -8.8908  -8.7175
    -8.0721  -8.0721  -7.9931  -7.9748  -7.9747  -7.9608  -7.7906  -7.7180
    -7.5578  -7.5199  -7.3853  -7.3852  -7.2087  -7.1742  -7.0958  -7.0958
    -6.8895  -6.7532  -6.7317  -6.7317  -6.6559  -6.6558  -6.6534  -6.6482
     1.2550   1.2633   1.5208   1.5208   1.6149   1.6267   1.6267   1.8863
     2.2723   2.6640   2.6641   2.7746   3.0969   3.0969   3.1089   3.5543
     3.9551   3.9677   3.9677   4.2866   4.4672   4.4672   4.5584   4.5873
     4.8093   4.8093   4.8687   4.8688   4.9916   5.0038   5.1843   5.1843
     5.1852   5.2674   5.3147   5.3477   5.4062   5.5110   5.5294   5.5294
     5.6518   5.7052   5.7232   5.7363   5.7364   5.8475   5.9148   5.9148
     5.9192   6.1512   6.1894   6.3000   6.3421   6.3422   6.4447   6.4447
     6.8909   6.9620   7.1655   7.1655   7.2313   7.2313   7.2750   7.3440
     7.3820   7.4244   7.4673   7.5181   7.5181   7.5603   7.5603   7.6531
     7.7036   7.7036   7.7372   7.7612   7.8692   7.8692   7.9126   7.9678
     8.0290   8.0290   8.0309   8.0555   8.0869   8.0962   8.0962   8.1159
     8.2987   8.2987   8.3007   8.3072   8.3897   8.4280   8.4280   8.5064
    12.2817  12.7263  12.7264  12.9915  13.0460  13.3026  13.3026  13.3672
    14.0686  14.1894  14.3794  14.3794  14.5984  14.5984  14.7518  14.9707
    16.5904  16.6686  16.7999  16.7999  16.8082  16.8082  16.9059  16.9326
    17.0622  17.1059  17.1059  17.2097  17.5253  17.5254  17.5308  17.5446
    17.5720  17.5969  17.6736  17.6737  17.6890  17.6890  17.8011  17.8433
    19.0789  19.0789  19.2631  19.2631  19.2647  19.4349  19.5099  19.6825

          k =-0.1250 0.1250-0.1238 ( 31549 PWs)   bands (ev):

   -12.1267 -12.0675 -12.0675 -12.0500 -12.0499 -11.9463 -11.9366 -11.9143
   -11.9036 -11.9021 -11.8919 -11.8919 -11.8767 -11.7575 -11.7575 -11.5139
   -11.4931 -11.4682 -11.4471 -11.3923 -11.2703 -11.2702 -11.2521 -11.2521
   -11.2503 -11.2502 -11.2413 -11.2372 -11.2344 -11.2328 -11.2328 -11.2322
   -11.2298 -11.2152 -11.2112 -11.2040 -11.2040 -11.1953 -11.1952 -11.1482
   -11.1079 -11.1036 -11.1035 -11.1010 -11.1007 -11.1006 -11.1006 -11.0990
   -11.0984 -11.0766 -11.0765 -11.0673 -11.0644 -11.0624 -11.0623 -11.0598
   -11.0510 -11.0508 -11.0507 -11.0505 -11.0504 -11.0486 -11.0486 -11.0360
   -11.0195 -11.0112 -11.0111 -11.0101 -11.0101 -11.0087 -11.0080 -11.0064
   -11.0053 -11.0043 -11.0042 -11.0032 -11.0031 -11.0031 -11.0000 -10.9999
    -9.7753  -9.2058  -9.2058  -8.8686  -8.8685  -8.4928  -8.4631  -8.4630
    -8.4522  -8.3612  -8.3612  -8.1274  -8.0983  -8.0930  -8.0340  -7.9982
    -7.9941  -7.9687  -7.7318  -7.2449  -7.2449  -6.9276  -6.9276  -6.7635
    -6.7207  -6.6926  -6.6562  -6.5316  -6.5315  -6.5014  -6.5014  -6.4583
     0.8559   1.0190   1.0722   1.4475   1.8146   1.8146   1.9932   1.9932
     2.0075   2.0555   2.0555   2.7681   2.7681   3.0652   3.3000   3.4566
     3.4566   3.6323   3.6324   4.0279   4.0289   4.6079   4.7083   4.7205
     4.7206   4.7673   4.7805   4.8214   4.8214   4.9205   5.0299   5.0651
     5.2263   5.2727   5.3543   5.3543   5.6077   5.7078   5.7078   5.8709
     5.9400   5.9454   5.9454   5.9693   6.2387   6.3046   6.3919   6.4098
     6.4098   6.5896   6.6439   6.7734   6.7734   6.8413   6.9150   6.9625
     7.0414   7.0943   7.0943   7.1570   7.1765   7.1765   7.2532   7.2532
     7.5356   7.5386   7.5593   7.5883   7.6198   7.6198   7.6217   7.6494
     7.6494   7.6887   7.7145   7.7927   7.7927   7.8860   7.8860   7.9272
     7.9355   7.9922   8.0300   8.0300   8.0307   8.0594   8.0768   8.0942
     8.1284   8.1284   8.1695   8.2330   8.2330   8.3177   8.3177   8.8408
     9.9673  12.4391  12.4392  13.0972  13.2440  13.2440  13.2490  13.3556
    13.3862  14.2749  14.4887  14.5749  14.5749  14.7632  14.7632  14.8037
    14.9879  14.9886  15.6082  15.6082  15.6758  15.6758  16.0034  16.0101
    16.5060  16.5060  16.7767  16.7767  17.3265  17.5081  17.7147  18.3733
    18.6739  18.9723  19.1093  19.1717  19.1717  19.2648  19.2808  19.3021
    19.3021  19.3280  19.3280  19.3718  19.3828  19.3829  19.4047  19.4187

          k =-0.1250 0.1250-0.3715 ( 31592 PWs)   bands (ev):

   -12.0677 -12.0067 -12.0067 -11.9865 -11.9865 -11.8779 -11.8734 -11.8560
   -11.8559 -11.8446 -11.8399 -11.8298 -11.8206 -11.7329 -11.7328 -11.6382
   -11.5392 -11.4863 -11.4144 -11.3470 -11.3456 -11.3430 -11.3386 -11.3386
   -11.3371 -11.3354 -11.3354 -11.3165 -11.3165 -11.3099 -11.2464 -11.2464
   -11.2148 -11.1967 -11.1929 -11.1847 -11.1846 -11.1701 -11.1700 -11.1500
   -11.1034 -11.1030 -11.1030 -11.0977 -11.0977 -11.0907 -11.0892 -11.0892
   -11.0876 -11.0740 -11.0740 -11.0706 -11.0653 -11.0627 -11.0617 -11.0612
   -11.0611 -11.0568 -11.0568 -11.0532 -11.0522 -11.0514 -11.0513 -11.0492
   -11.0472 -11.0438 -11.0390 -11.0390 -11.0376 -11.0364 -11.0363 -11.0363
   -11.0218 -11.0218 -11.0206 -11.0206 -11.0202 -11.0198 -11.0198 -11.0196
    -9.6997  -9.1056  -9.1056  -8.9037  -8.7518  -8.7518  -8.6053  -8.6053
    -8.3990  -8.3530  -8.3530  -8.1326  -8.1125  -8.0411  -7.9036  -7.8212
    -7.8044  -7.6263  -7.5334  -7.1496  -7.1496  -6.9349  -6.8783  -6.8782
    -6.8721  -6.8593  -6.7905  -6.6231  -6.6231  -6.5674  -6.5674  -6.5431
     0.8496   1.0971   1.2759   1.3325   1.8661   1.8661   2.0644   2.0644
     2.2287   2.2287   2.7497   2.7792   2.7792   2.7833   2.9401   3.5358
     3.5358   3.7187   3.7188   4.3199   4.3199   4.5035   4.6626   4.7150
     4.7150   4.9472   4.9473   4.9535   4.9536   4.9903   5.0264   5.0264
     5.0447   5.0759   5.1117   5.1348   5.1814   5.4471   5.4999   5.7696
     5.9407   6.0117   6.0158   6.1002   6.1260   6.2685   6.2685   6.3010
     6.3469   6.4508   6.4634   6.5688   6.5689   6.7840   6.7840   6.8056
     6.8187   6.9201   7.0623   7.1156   7.1687   7.1687   7.2166   7.2166
     7.3036   7.3036   7.4431   7.4431   7.5416   7.5416   7.6680   7.6680
     7.7452   7.8403   7.8450   7.8498   7.9031   7.9031   7.9249   7.9345
     7.9742   7.9742   7.9758   8.0419   8.0810   8.1089   8.1216   8.1295
     8.1360   8.1360   8.1817   8.1864   8.1864   8.2935   8.2935   8.7477
    10.7358  12.7657  12.7657  13.2518  13.3981  13.4236  13.4807  13.5422
    13.5422  13.5999  14.2824  14.2824  14.6733  14.6733  14.7759  15.1619
    15.5253  15.5421  16.0977  16.0977  16.1546  16.1546  16.3915  16.3922
    16.7727  16.7727  16.9892  16.9892  17.3721  17.4206  17.5712  18.0026
    18.2189  18.3056  18.6049  18.6049  18.7169  18.7169  18.9181  18.9181
    18.9308  18.9308  18.9625  19.0385  19.1808  19.2121  19.3166  19.4379

          k =-0.1250 0.1250-0.6191 ( 31646 PWs)   bands (ev):

   -11.9620 -11.9086 -11.9086 -11.8755 -11.8754 -11.8460 -11.8394 -11.8393
   -11.7681 -11.7631 -11.7631 -11.7560 -11.7299 -11.7015 -11.6928 -11.6784
   -11.6261 -11.5465 -11.5299 -11.5231 -11.5164 -11.4987 -11.4134 -11.4134
   -11.3870 -11.3869 -11.3623 -11.3623 -11.2992 -11.2992 -11.2921 -11.2607
   -11.1741 -11.1603 -11.1578 -11.1577 -11.1577 -11.1554 -11.1492 -11.1492
   -11.1231 -11.1231 -11.1208 -11.1200 -11.1200 -11.1105 -11.1094 -11.1067
   -11.0949 -11.0842 -11.0712 -11.0712 -11.0695 -11.0695 -11.0695 -11.0661
   -11.0660 -11.0645 -11.0629 -11.0629 -11.0621 -11.0603 -11.0602 -11.0595
   -11.0567 -11.0546 -11.0489 -11.0489 -11.0447 -11.0447 -11.0431 -11.0430
   -11.0427 -11.0416 -11.0394 -11.0382 -11.0382 -11.0367 -11.0357 -11.0357
    -9.5382  -9.2743  -8.9486  -8.9486  -8.7744  -8.7744  -8.5821  -8.5821
    -8.4326  -8.4326  -8.2860  -8.1973  -8.0874  -8.0607  -7.5846  -7.5411
    -7.4930  -7.4096  -7.3256  -7.2330  -7.1497  -7.1285  -6.9822  -6.9822
    -6.8868  -6.7881  -6.7881  -6.7874  -6.7874  -6.7104  -6.6739  -6.6739
     0.8555   0.9174   1.7342   1.8018   1.9746   1.9746   2.0503   2.0504
     2.2877   2.3828   2.5406   2.5406   2.7386   2.7386   3.6553   3.7491
     3.7491   3.8734   3.8734   4.1591   4.1591   4.2611   4.2611   4.4646
     4.4943   4.7176   4.8335   4.8365   5.1394   5.2661   5.3040   5.3074
     5.3510   5.3893   5.4100   5.4100   5.4638   5.4639   5.4659   5.5629
     5.6285   5.7144   5.8046   5.8093   5.9565   5.9566   6.0561   6.0561
     6.0876   6.1504   6.2610   6.3043   6.4849   6.4893   6.5134   6.5162
     6.7201   6.7305   7.0324   7.0324   7.2502   7.2502   7.3000   7.3000
     7.3462   7.3462   7.4284   7.4284   7.5111   7.5111   7.5738   7.5738
     7.7990   7.7990   7.8392   7.8993   7.9752   7.9941   7.9941   8.0034
     8.0088   8.0124   8.0565   8.0713   8.0930   8.0930   8.1041   8.1292
     8.1719   8.1719   8.1797   8.1801   8.2369   8.2369   8.2721   8.5547
    11.7556  12.7491  13.2816  13.2816  13.4256  13.4823  13.5528  13.5754
    13.8263  13.8263  13.9896  13.9896  14.4065  14.4065  15.1254  15.2883
    16.4049  16.4335  16.8783  16.8783  16.8997  16.8998  16.9779  16.9808
    17.1942  17.1942  17.2585  17.2742  17.2742  17.3987  17.4089  17.4189
    17.4595  17.5007  17.9021  17.9021  17.9239  17.9239  18.3324  18.3324
    18.3932  18.3932  18.6241  18.6953  19.0094  19.1243  19.3688  19.5329

          k =-0.1250 0.3750-0.1238 ( 31554 PWs)   bands (ev):

   -12.0855 -12.0513 -12.0492 -12.0055 -12.0052 -12.0039 -12.0010 -11.9995
   -11.9450 -11.9378 -11.9079 -11.9006 -11.8346 -11.7884 -11.6232 -11.5194
   -11.4519 -11.4464 -11.3538 -11.3511 -11.3509 -11.3179 -11.2665 -11.2509
   -11.2508 -11.2488 -11.2467 -11.2453 -11.2440 -11.2428 -11.2375 -11.2373
   -11.2224 -11.2134 -11.2131 -11.2082 -11.2045 -11.1985 -11.1849 -11.1679
   -11.1053 -11.1050 -11.1034 -11.1029 -11.1025 -11.1023 -11.1016 -11.1014
   -11.1006 -11.0904 -11.0740 -11.0707 -11.0627 -11.0621 -11.0573 -11.0540
   -11.0511 -11.0511 -11.0500 -11.0496 -11.0494 -11.0491 -11.0486 -11.0408
   -11.0152 -11.0102 -11.0100 -11.0090 -11.0077 -11.0076 -11.0072 -11.0071
   -11.0070 -11.0055 -11.0051 -11.0045 -11.0044 -11.0035 -11.0023 -11.0005
    -9.6769  -9.4832  -9.0736  -8.8260  -8.7241  -8.5108  -8.4977  -8.4801
    -8.4594  -8.3849  -8.2485  -8.2400  -8.2127  -8.1927  -8.1064  -8.0635
    -7.8403  -7.7364  -7.5699  -7.4250  -7.3700  -7.0848  -6.7118  -6.6741
    -6.6667  -6.6220  -6.6128  -6.5984  -6.5842  -6.5359  -6.5220  -6.5193
     1.0638   1.1546   1.3079   1.4532   1.4721   1.5078   1.6330   1.6763
     2.0411   2.0658   2.2740   2.6517   2.9450   3.1976   3.5443   3.6184
     3.8475   4.0170   4.0304   4.0837   4.0854   4.0907   4.2820   4.4436
     4.5911   4.6756   4.6872   4.8826   4.9324   4.9648   4.9962   5.0838
     5.1580   5.1722   5.2314   5.3181   5.4970   5.5503   5.5869   5.6580
     5.8095   5.8511   6.0922   6.0962   6.1033   6.2737   6.4041   6.4350
     6.6025   6.7777   6.7976   6.9372   6.9533   6.9995   7.0327   7.0633
     7.1000   7.1438   7.2222   7.2320   7.2830   7.2999   7.4560   7.4977
     7.5046   7.5121   7.5458   7.5652   7.5789   7.5839   7.6133   7.6294
     7.6337   7.6426   7.6435   7.6880   7.7834   7.7885   7.8010   7.8084
     7.8181   7.8579   7.9015   7.9556   7.9781   8.0033   8.0304   8.0399
     8.0834   8.1557   8.1682   8.1753   8.1957   8.2587   8.4921   8.7052
    10.6391  11.5309  12.6056  12.8580  13.2718  13.2935  13.6101  13.7173
    13.8589  14.0772  14.2601  14.2728  14.3165  14.4116  14.8359  14.8530
    15.1151  15.2203  15.3579  15.5004  15.7330  15.7781  15.8969  15.9189
    16.6650  16.7556  17.0823  17.1611  17.2795  17.3297  17.5482  17.9638
    18.8916  19.0468  19.0968  19.1070  19.1241  19.1653  19.1701  19.2261
    19.2584  19.3581  19.3673  19.3711  19.3714  19.4196  19.5756  19.5972

          k =-0.1250 0.3750-0.3715 ( 31574 PWs)   bands (ev):

   -12.0305 -11.9914 -11.9894 -11.9582 -11.9427 -11.9423 -11.9402 -11.9353
   -11.8767 -11.8688 -11.8575 -11.8559 -11.7869 -11.7536 -11.6039 -11.5465
   -11.4893 -11.4880 -11.4257 -11.3910 -11.3835 -11.3452 -11.3426 -11.3419
   -11.3415 -11.3412 -11.3377 -11.3323 -11.3317 -11.2923 -11.2643 -11.2310
   -11.2092 -11.1986 -11.1956 -11.1903 -11.1848 -11.1756 -11.1577 -11.1509
   -11.1025 -11.1007 -11.0974 -11.0966 -11.0964 -11.0959 -11.0924 -11.0923
   -11.0896 -11.0871 -11.0719 -11.0688 -11.0668 -11.0623 -11.0613 -11.0609
   -11.0557 -11.0542 -11.0541 -11.0512 -11.0511 -11.0496 -11.0472 -11.0466
   -11.0451 -11.0443 -11.0427 -11.0421 -11.0409 -11.0385 -11.0367 -11.0363
   -11.0218 -11.0216 -11.0211 -11.0206 -11.0202 -11.0198 -11.0189 -11.0186
    -9.5980  -9.3961  -8.9722  -8.8704  -8.7787  -8.7248  -8.6112  -8.5003
    -8.3740  -8.3586  -8.3204  -8.2498  -8.1079  -8.0517  -8.0320  -7.7508
    -7.6736  -7.6237  -7.4346  -7.3248  -7.2886  -7.0229  -6.8627  -6.8179
    -6.7359  -6.7273  -6.7209  -6.6744  -6.6674  -6.6191  -6.5809  -6.5685
     1.0625   1.2413   1.3764   1.4769   1.5117   1.5466   1.6080   1.8891
     2.2331   2.5075   2.5091   2.6721   2.8549   2.9415   3.5526   3.6540
     3.9431   4.0334   4.1579   4.2105   4.2482   4.3525   4.3767   4.6162
     4.7276   4.7299   4.7785   4.8454   4.8474   4.9261   4.9442   4.9880
     5.0535   5.0538   5.0625   5.1275   5.2537   5.2554   5.4899   5.5047
     5.5679   5.9243   5.9620   6.1295   6.1422   6.2549   6.3891   6.4231
     6.4253   6.4432   6.6507   6.7515   6.8087   6.8393   6.8944   6.9432
     6.9803   7.0193   7.0210   7.1292   7.2025   7.2048   7.2743   7.2910
     7.3330   7.4175   7.4594   7.4695   7.4807   7.5241   7.5813   7.6253
     7.6671   7.7462   7.7730   7.7974   7.8056   7.8213   7.8322   7.8621
     7.9268   7.9844   7.9926   8.0038   8.0541   8.1022   8.1063   8.1168
     8.1288   8.1653   8.1723   8.1731   8.2370   8.2940   8.4845   8.6591
    11.1985  11.9364  12.8779  13.0608  13.4822  13.5231  13.6044  13.7061
    13.7810  13.9338  13.9537  14.1583  14.2551  14.5658  14.9687  15.1136
    15.6400  15.7221  15.8610  15.9771  16.1945  16.2315  16.3182  16.3305
    16.8394  16.9439  17.1099  17.2090  17.3770  17.4289  17.5991  17.9213
    18.1881  18.3853  18.4160  18.5267  18.5938  18.7136  18.7236  18.7682
    18.9585  19.0183  19.0530  19.0876  19.1553  19.1951  19.4311  19.7247

          k =-0.1250 0.3750-0.6191 ( 31574 PWs)   bands (ev):

   -11.9410 -11.9115 -11.8997 -11.8880 -11.8863 -11.8406 -11.8351 -11.8233
   -11.8164 -11.7933 -11.7663 -11.7510 -11.7444 -11.7334 -11.6761 -11.5998
   -11.5896 -11.5488 -11.4990 -11.4980 -11.4932 -11.4620 -11.4510 -11.4489
   -11.4454 -11.4388 -11.3931 -11.3489 -11.3202 -11.2965 -11.2474 -11.2409
   -11.1715 -11.1658 -11.1612 -11.1600 -11.1539 -11.1505 -11.1467 -11.1438
   -11.1240 -11.1226 -11.1200 -11.1160 -11.1146 -11.1140 -11.1125 -11.1087
   -11.0900 -11.0819 -11.0817 -11.0765 -11.0706 -11.0698 -11.0691 -11.0657
   -11.0639 -11.0637 -11.0634 -11.0605 -11.0601 -11.0598 -11.0592 -11.0556
   -11.0545 -11.0518 -11.0515 -11.0510 -11.0476 -11.0451 -11.0424 -11.0416
   -11.0410 -11.0408 -11.0406 -11.0402 -11.0395 -11.0380 -11.0358 -11.0346
    -9.4417  -9.2430  -9.2001  -9.0357  -8.8173  -8.6525  -8.5796  -8.4522
    -8.4387  -8.3185  -8.2352  -8.1807  -8.1477  -8.0430  -7.7983  -7.6488
    -7.4013  -7.3944  -7.2033  -7.1431  -7.1306  -7.1187  -7.0824  -6.9414
    -6.9263  -6.9233  -6.9061  -6.7576  -6.7172  -6.6692  -6.6546  -6.6418
     1.0678   1.1093   1.4746   1.4768   1.7618   1.8640   1.9743   2.1035
     2.1907   2.2478   2.4869   2.6163   3.0662   3.4549   3.4561   3.8323
     4.0486   4.0908   4.0998   4.2393   4.2563   4.3847   4.4246   4.4914
     4.5183   4.5400   4.6445   4.7666   4.8417   4.8432   4.8651   5.0232
     5.0424   5.2137   5.3494   5.3900   5.4073   5.4559   5.5379   5.6011
     5.6071   5.7062   5.7870   5.8003   5.8978   5.9102   5.9875   6.1464
     6.1497   6.2685   6.4508   6.4941   6.6557   6.7484   6.7753   6.7819
     6.8199   6.9494   6.9861   7.0716   7.0799   7.0805   7.1049   7.2398
     7.2644   7.3144   7.3416   7.4201   7.4666   7.6175   7.6234   7.6300
     7.6505   7.6980   7.8056   7.8280   7.8364   7.9218   7.9694   7.9993
     8.0155   8.0292   8.0588   8.0763   8.0994   8.1092   8.1262   8.1296
     8.2018   8.2282   8.2723   8.2758   8.2846   8.2914   8.4182   8.5230
    12.0425  12.5847  12.9253  13.2925  13.2943  13.3365  13.5338  13.6861
    13.7087  13.8132  13.8736  14.1422  14.5741  14.8849  14.9537  15.1721
    16.4876  16.5388  16.6921  16.7050  16.9137  16.9475  16.9588  16.9762
    17.1539  17.1844  17.2569  17.3494  17.3515  17.3973  17.4170  17.4831
    17.5019  17.6060  17.6431  17.7356  17.9872  17.9891  18.2211  18.2424
    18.4825  18.5745  18.7597  18.8666  18.8686  19.0705  19.3732  19.7107

          k =-0.3750 0.3750-0.1238 ( 31564 PWs)   bands (ev):

   -12.0675 -12.0675 -12.0542 -12.0517 -12.0485 -11.9917 -11.9916 -11.9607
   -11.9416 -11.9415 -11.9112 -11.9068 -11.7497 -11.6713 -11.6712 -11.5735
   -11.4913 -11.4898 -11.4444 -11.4443 -11.2642 -11.2515 -11.2515 -11.2510
   -11.2489 -11.2482 -11.2378 -11.2377 -11.2338 -11.2330 -11.2266 -11.2265
   -11.2241 -11.2195 -11.2176 -11.2175 -11.1956 -11.1885 -11.1885 -11.1776
   -11.1062 -11.1061 -11.1053 -11.1047 -11.1028 -11.1025 -11.1025 -11.1019
   -11.0959 -11.0861 -11.0860 -11.0790 -11.0564 -11.0558 -11.0537 -11.0537
   -11.0527 -11.0521 -11.0520 -11.0487 -11.0484 -11.0483 -11.0483 -11.0445
   -11.0125 -11.0113 -11.0112 -11.0103 -11.0100 -11.0080 -11.0079 -11.0074
   -11.0047 -11.0047 -11.0040 -11.0034 -11.0031 -11.0018 -11.0010 -11.0010
    -9.5710  -9.3649  -9.3649  -9.1388  -8.4991  -8.4763  -8.4763  -8.3848
    -8.3583  -8.3582  -8.1226  -8.1225  -8.1000  -8.0677  -8.0617  -8.0607
    -8.0486  -8.0245  -7.7619  -7.7618  -7.0401  -6.7978  -6.7978  -6.7429
    -6.7135  -6.6896  -6.6896  -6.6061  -6.5372  -6.5189  -6.4998  -6.4998
     1.1769   1.2812   1.3611   1.3611   1.3999   1.6124   1.6981   1.6981
     1.9601   1.9601   2.1106   2.1146   3.5660   3.6161   3.6161   3.6806
     3.6806   3.7171   4.1171   4.1777   4.1991   4.2036   4.2334   4.2334
     4.4108   4.4142   4.4142   4.4753   4.9368   5.0003   5.0518   5.0519
     5.2501   5.4794   5.4795   5.4929   5.4929   5.5866   5.7505   5.8057
     6.0046   6.0046   6.1844   6.2274   6.2447   6.2748   6.2839   6.4200
     6.4679   6.4679   6.6044   6.7360   6.7360   6.7361   6.7361   7.1506
     7.1899   7.2206   7.2210   7.2210   7.4117   7.5019   7.5180   7.5210
     7.5312   7.5312   7.5327   7.5327   7.6159   7.6159   7.6506   7.6680
     7.6680   7.6712   7.6971   7.7159   7.7202   7.7300   7.7698   7.7698
     7.8337   7.8338   7.8868   7.8868   7.9061   7.9859   7.9859   8.0001
     8.0831   8.1341   8.1341   8.1384   8.2874   8.4204   8.4204   8.5996
    11.1282  11.8491  11.8491  12.3409  13.5898  13.7524  13.7638  13.7638
    14.0647  14.0647  14.0760  14.0948  14.1778  14.6060  14.6060  14.8396
    15.3180  15.3677  15.5362  15.5363  15.6204  15.6204  15.7498  15.7994
    16.4776  16.4776  16.6050  16.7079  17.9515  17.9515  18.0117  18.5428
    18.6996  18.9068  18.9213  18.9469  18.9684  18.9684  18.9859  18.9859
    19.3507  19.3873  19.3873  19.4090  19.4178  19.6741  19.6965  19.7394

          k =-0.3750 0.3750-0.3715 ( 31577 PWs)   bands (ev):

   -12.0066 -12.0066 -12.0008 -11.9900 -11.9894 -11.9423 -11.9422 -11.9085
   -11.8733 -11.8733 -11.8371 -11.8330 -11.7108 -11.6437 -11.6437 -11.5619
   -11.5473 -11.5429 -11.4981 -11.4981 -11.3459 -11.3442 -11.3440 -11.3439
   -11.3374 -11.3338 -11.3338 -11.3311 -11.2870 -11.2338 -11.2337 -11.2318
   -11.2083 -11.2020 -11.2020 -11.2017 -11.1719 -11.1619 -11.1619 -11.1528
   -11.1021 -11.1020 -11.1000 -11.0992 -11.0930 -11.0930 -11.0921 -11.0920
   -11.0919 -11.0832 -11.0832 -11.0766 -11.0628 -11.0596 -11.0596 -11.0567
   -11.0553 -11.0526 -11.0514 -11.0513 -11.0493 -11.0486 -11.0486 -11.0478
   -11.0460 -11.0459 -11.0447 -11.0443 -11.0394 -11.0374 -11.0374 -11.0371
   -11.0223 -11.0223 -11.0222 -11.0212 -11.0192 -11.0192 -11.0192 -11.0190
    -9.4881  -9.2740  -9.2740  -9.0422  -8.8199  -8.6987  -8.6987  -8.5375
    -8.2341  -8.2341  -8.0546  -7.9995  -7.9995  -7.9882  -7.9404  -7.8745
    -7.8335  -7.8206  -7.6273  -7.6273  -6.9898  -6.9130  -6.8816  -6.8395
    -6.8395  -6.7774  -6.7774  -6.6263  -6.6196  -6.5842  -6.5644  -6.5643
     1.2765   1.2950   1.3413   1.4126   1.4127   1.6822   1.6822   1.8509
     2.0525   2.2359   2.2359   2.5444   3.2509   3.4391   3.4391   3.7430
     3.7453   3.7453   3.8890   4.1994   4.4792   4.4887   4.4982   4.4982
     4.6850   4.6851   4.7244   4.7625   4.8879   4.8879   5.0686   5.1287
     5.1354   5.2148   5.2148   5.3252   5.4450   5.4491   5.4491   5.6456
     5.7415   5.7415   5.8110   5.9953   6.0457   6.1731   6.1783   6.2793
     6.3081   6.3081   6.5330   6.6202   6.6202   6.7188   6.7188   6.8704
     7.1096   7.1312   7.1596   7.2672   7.2672   7.3297   7.3659   7.3659
     7.3786   7.3786   7.3863   7.4625   7.5512   7.5512   7.5915   7.6267
     7.6267   7.6882   7.7123   7.7509   7.7892   7.8442   7.8442   7.8888
     7.9086   8.0010   8.0010   8.0038   8.0339   8.0978   8.1032   8.1032
     8.1363   8.1378   8.1378   8.1535   8.3740   8.4621   8.4621   8.5991
    11.5733  12.1856  12.1856  12.5977  13.6267  13.7170  13.7811  13.7811
    13.8076  14.0312  14.0312  14.1582  14.3740  14.6384  14.6384  14.9661
    15.8024  15.8638  16.0133  16.0134  16.0818  16.0818  16.2029  16.2266
    16.7113  16.7114  16.7746  16.8882  17.8873  17.8874  17.9428  18.2313
    18.2358  18.2785  18.3481  18.3481  18.4167  18.4859  18.4859  18.5317
    19.1819  19.1820  19.2755  19.3621  19.4800  19.5363  19.5445  19.5445

          k =-0.3750 0.3750-0.6191 ( 31563 PWs)   bands (ev):

   -11.9208 -11.9121 -11.9121 -11.9080 -11.8903 -11.8811 -11.8810 -11.8448
   -11.7602 -11.7601 -11.6990 -11.6955 -11.6846 -11.6717 -11.6717 -11.6408
   -11.6285 -11.6065 -11.5600 -11.5599 -11.5211 -11.5183 -11.4966 -11.4966
   -11.3878 -11.3427 -11.3426 -11.3401 -11.3094 -11.2734 -11.2733 -11.2396
   -11.1718 -11.1677 -11.1677 -11.1662 -11.1464 -11.1423 -11.1422 -11.1408
   -11.1258 -11.1246 -11.1246 -11.1207 -11.1086 -11.1086 -11.1081 -11.1054
   -11.0858 -11.0810 -11.0784 -11.0783 -11.0765 -11.0765 -11.0756 -11.0728
   -11.0635 -11.0612 -11.0612 -11.0597 -11.0580 -11.0573 -11.0552 -11.0552
   -11.0545 -11.0523 -11.0522 -11.0479 -11.0478 -11.0446 -11.0445 -11.0422
   -11.0413 -11.0404 -11.0404 -11.0397 -11.0394 -11.0374 -11.0373 -11.0372
    -9.3343  -9.1212  -9.1212  -9.1112  -8.9263  -8.9263  -8.8908  -8.7175
    -8.0721  -8.0721  -7.9931  -7.9748  -7.9748  -7.9608  -7.7906  -7.7180
    -7.5578  -7.5199  -7.3853  -7.3852  -7.2087  -7.1742  -7.0958  -7.0958
    -6.8895  -6.7531  -6.7317  -6.7317  -6.6559  -6.6559  -6.6534  -6.6482
     1.2550   1.2633   1.5208   1.5208   1.6149   1.6267   1.6267   1.8863
     2.2723   2.6640   2.6641   2.7746   3.0969   3.0969   3.1089   3.5543
     3.9552   3.9677   3.9677   4.2867   4.4672   4.4672   4.5584   4.5873
     4.8093   4.8093   4.8688   4.8688   4.9917   5.0038   5.1843   5.1844
     5.1852   5.2674   5.3147   5.3477   5.4062   5.5110   5.5294   5.5294
     5.6518   5.7052   5.7232   5.7363   5.7364   5.8475   5.9148   5.9148
     5.9193   6.1512   6.1894   6.3000   6.3421   6.3422   6.4447   6.4447
     6.8909   6.9620   7.1655   7.1655   7.2313   7.2313   7.2750   7.3440
     7.3820   7.4244   7.4673   7.5181   7.5181   7.5603   7.5603   7.6531
     7.7036   7.7036   7.7372   7.7612   7.8692   7.8692   7.9126   7.9678
     8.0290   8.0290   8.0310   8.0556   8.0869   8.0962   8.0962   8.1159
     8.2987   8.2987   8.3007   8.3072   8.3897   8.4280   8.4280   8.5064
    12.2817  12.7263  12.7263  12.9915  13.0460  13.3026  13.3026  13.3672
    14.0686  14.1894  14.3794  14.3794  14.5984  14.5985  14.7518  14.9707
    16.5904  16.6686  16.7999  16.7999  16.8082  16.8082  16.9059  16.9326
    17.0622  17.1059  17.1059  17.2097  17.5253  17.5254  17.5308  17.5446
    17.5720  17.5969  17.6736  17.6736  17.6890  17.6890  17.8011  17.8433
    19.0789  19.0789  19.2631  19.2632  19.2646  19.4349  19.5099  19.5681

     highest occupied, lowest unoccupied level (ev):     8.8408    9.9673

!    total energy              =   -3638.20709331 Ry
     Harris-Foulkes estimate   =   -3638.20709331 Ry
     estimated scf accuracy    <          1.8E-09 Ry

     The total energy is the sum of the following terms:

     one-electron contribution =   -1057.62495400 Ry
     hartree contribution      =     846.90379772 Ry
     xc contribution           =   -1001.22288367 Ry
     ewald contribution        =   -2426.26305336 Ry

     convergence has been achieved in  10 iterations

     Forces acting on atoms (Ry/au):

     atom    1 type  1   force =     0.00000000    0.00000000    0.00000000
     atom    2 type  1   force =     0.00000000    0.00000000    0.00000000
     atom    3 type  1   force =     0.00000000    0.00000000    0.00000000
     atom    4 type  1   force =     0.00000000    0.00000000    0.00000000
     atom    5 type  1   force =     0.00000000    0.00000000    0.00000000
     atom    6 type  1   force =     0.00000000    0.00000000    0.00000000
     atom    7 type  1   force =     0.00000000    0.00000000    0.00000000
     atom    8 type  1   force =     0.00000000    0.00000000    0.00000000
     atom    9 type  1   force =     0.00000670    0.00000670   -0.00000949
     atom   10 type  1   force =    -0.00000274    0.00000274   -0.00000989
     atom   11 type  1   force =     0.00000274   -0.00000274   -0.00000989
     atom   12 type  1   force =    -0.00000670   -0.00000670   -0.00000949
     atom   13 type  1   force =     0.00000670    0.00000670    0.00000949
     atom   14 type  1   force =    -0.00000274    0.00000274    0.00000989
     atom   15 type  1   force =     0.00000274   -0.00000274    0.00000989
     atom   16 type  1   force =    -0.00000670   -0.00000670    0.00000949
     atom   17 type  2   force =    -0.00165022   -0.00165022   -0.00000000
     atom   18 type  2   force =    -0.00165053   -0.00165022    0.00000000
     atom   19 type  2   force =    -0.00165022   -0.00165053   -0.00000000
     atom   20 type  2   force =    -0.00165078   -0.00165078    0.00000000
     atom   21 type  2   force =    -0.00165054   -0.00165054    0.00000000
     atom   22 type  2   force =    -0.00165099   -0.00165066    0.00000000
     atom   23 type  2   force =    -0.00165066   -0.00165099    0.00000000
     atom   24 type  2   force =    -0.00165052   -0.00165052    0.00000000
     atom   25 type  2   force =     0.00165078    0.00165078    0.00000000
     atom   26 type  2   force =     0.00165022    0.00165053   -0.00000000
     atom   27 type  2   force =     0.00165053    0.00165022    0.00000000
     atom   28 type  2   force =     0.00165022    0.00165022    0.00000000
     atom   29 type  2   force =     0.00165052    0.00165052    0.00000000
     atom   30 type  2   force =     0.00165066    0.00165099    0.00000000
     atom   31 type  2   force =     0.00165099    0.00165066    0.00000000
     atom   32 type  2   force =     0.00165054    0.00165054    0.00000000
     atom   33 type  2   force =     0.00165017   -0.00164994   -0.00000029
     atom   34 type  2   force =     0.00165049   -0.00165049   -0.00000027
     atom   35 type  2   force =     0.00165094   -0.00165094   -0.00000030
     atom   36 type  2   force =     0.00164994   -0.00165017   -0.00000029
     atom   37 type  2   force =     0.00165017   -0.00164994    0.00000029
     atom   38 type  2   force =     0.00165049   -0.00165049    0.00000027
     atom   39 type  2   force =     0.00165094   -0.00165094    0.00000030
     atom   40 type  2   force =     0.00164994   -0.00165017    0.00000029
     atom   41 type  2   force =    -0.00164994    0.00165017   -0.00000029
     atom   42 type  2   force =    -0.00165094    0.00165094   -0.00000030
     atom   43 type  2   force =    -0.00165049    0.00165049   -0.00000027
     atom   44 type  2   force =    -0.00165017    0.00164994   -0.00000029
     atom   45 type  2   force =    -0.00164994    0.00165017    0.00000029
     atom   46 type  2   force =    -0.00165094    0.00165094    0.00000030
     atom   47 type  2   force =    -0.00165049    0.00165049    0.00000027
     atom   48 type  2   force =    -0.00165017    0.00164994    0.00000029

     Total force =     0.013204     Total SCF correction =     0.000117


     entering subroutine stress ...

          total   stress  (Ry/bohr**3)                   (kbar)     P=  -36.74
  -0.00024775  -0.00000002   0.00000000        -36.45     -0.00      0.00
  -0.00000002  -0.00024775   0.00000000         -0.00    -36.45      0.00
   0.00000000   0.00000000  -0.00025368          0.00      0.00    -37.32


     init_run     :    343.40s CPU    344.33s WALL (       1 calls)
     electrons    :  11622.19s CPU  11656.61s WALL (       1 calls)
     forces       :    260.30s CPU    260.58s WALL (       1 calls)
     stress       :    342.55s CPU    343.08s WALL (       1 calls)

     Called by init_run:
     wfcinit      :    323.12s CPU    323.85s WALL (       1 calls)
     potinit      :      2.30s CPU      2.33s WALL (       1 calls)

     Called by electrons:
     c_bands      :  10635.34s CPU  10664.43s WALL (      10 calls)
     sum_band     :    913.66s CPU    917.28s WALL (      10 calls)
     v_of_rho     :      5.82s CPU      5.95s WALL (      11 calls)
     newd         :     73.02s CPU     74.72s WALL (      11 calls)
     mix_rho      :      0.89s CPU      0.92s WALL (      10 calls)

     Called by c_bands:
     init_us_2    :     12.37s CPU     12.38s WALL (     414 calls)
     cegterg      :  10607.22s CPU  10636.15s WALL (     180 calls)

     Called by sum_band:
     sum_band:bec :      0.67s CPU      0.65s WALL (     180 calls)
     addusdens    :    103.48s CPU    105.00s WALL (      10 calls)

     Called by *egterg:
     h_psi        :   4105.87s CPU   4120.07s WALL (     912 calls)
     s_psi        :   1598.82s CPU   1598.97s WALL (     912 calls)
     g_psi        :      3.87s CPU      3.83s WALL (     714 calls)
     cdiaghg      :    736.98s CPU    737.04s WALL (     894 calls)

     Called by h_psi:
     add_vuspsi   :   1601.90s CPU   1602.06s WALL (     912 calls)

     General routines
     calbec       :   2369.76s CPU   2370.32s WALL (    1182 calls)
     fft          :      5.77s CPU      6.02s WALL (     197 calls)
     ffts         :      0.10s CPU      0.12s WALL (      21 calls)
     fftw         :    881.00s CPU    891.63s WALL (  292648 calls)
     interpolate  :      0.85s CPU      0.88s WALL (      21 calls)

     Parallel routines
     fft_scatter  :    144.53s CPU    147.64s WALL (  292866 calls)

     PWSCF        :     3h29m CPU        3h30m WALL


   This run was terminated on:   2: 9:54  13May2018            

=------------------------------------------------------------------------------=
   JOB DONE.
=------------------------------------------------------------------------------=
