
     Program PWSCF v.5.4.0 starts on 11May2018 at  6:33:10 

     This program is part of the open-source Quantum ESPRESSO suite
     for quantum simulation of materials; please cite
         "P. Giannozzi et al., J. Phys.:Condens. Matter 21 395502 (2009);
          URL http://www.quantum-espresso.org", 
     in publications or presentations arising from this work. More details at
     http://www.quantum-espresso.org/quote

     Parallel version (MPI), running on     4 processors
     R & G space division:  proc/nbgrp/npool/nimage =       4
     Reading input from scf6_6_10.in
Warning: card &IONS ignored
Warning: card     ION_DYNAMICS='DAMP' ignored
Warning: card     POT_EXTRAPOLATION='SECOND_ORDER' ignored
Warning: card     WFC_EXTRAPOLATION='SECOND_ORDER' ignored
Warning: card / ignored

     Current dimensions of program PWSCF are:
     Max number of different atomic species (ntypx) = 10
     Max number of k-points (npk) =  40000
     Max angular momentum in pseudopotentials (lmaxx) =  3
               file Sn.pbesol-dn-rrkjus.UPF: wavefunction(s)  5S 4D renormalized
               file O.pbesol-nl-rrkjus.UPF: wavefunction(s)  2S renormalized

     Subspace diagonalization in iterative solution of the eigenvalue problem:
     a serial algorithm will be used

     Found symmetry operation: I + ( -0.5000  0.0000  0.0000)
     This is a supercell, fractional translations are disabled

     Parallelization info
     --------------------
     sticks:   dense  smooth     PW     G-vecs:    dense   smooth      PW
     Min        3952    1579    427               251738    63665    8958
     Max        3953    1580    428               251741    63676    8959
     Sum       15809    6317   1709              1006959   254689   35835



     bravais-lattice index     =            0
     lattice parameter (alat)  =      18.2000  a.u.
     unit-cell volume          =    4057.2263 (a.u.)^3
     number of atoms/cell      =           48
     number of atomic types    =            2
     number of electrons       =       416.00
     number of Kohn-Sham states=          256
     kinetic-energy cutoff     =      60.0000  Ry
     charge density cutoff     =     600.0000  Ry
     convergence threshold     =      2.0E-09
     mixing beta               =       0.7000
     number of iterations used =            8  plain     mixing
     Exchange-correlation      = PBESOL ( 1  4 10  8 0 0)

     celldm(1)=  18.200000  celldm(2)=   0.000000  celldm(3)=   0.000000
     celldm(4)=   0.000000  celldm(5)=   0.000000  celldm(6)=   0.000000

     crystal axes: (cart. coord. in units of alat)
               a(1) = (   1.000000   0.000000   0.000000 )  
               a(2) = (   0.000000   1.000000   0.000000 )  
               a(3) = (   0.000000   0.000000   0.673000 )  

     reciprocal axes: (cart. coord. in units 2 pi/alat)
               b(1) = (  1.000000  0.000000  0.000000 )  
               b(2) = (  0.000000  1.000000  0.000000 )  
               b(3) = (  0.000000  0.000000  1.485884 )  


     PseudoPot. # 1 for Sn read from file:
     /home/raja/pseudo/Sn.pbesol-dn-rrkjus.UPF
     MD5 check sum: b150398e14deaf400293d9009fcc5675
     Pseudo is Ultrasoft + core correction, Zval = 14.0
     Generated using "atomic" code by A. Dal Corso  v.5.4.0
     Using radial grid of 1243 points,  6 beta functions with: 
                l(1) =   0
                l(2) =   0
                l(3) =   1
                l(4) =   1
                l(5) =   2
                l(6) =   2
     Q(r) pseudized with 0 coefficients 


     PseudoPot. # 2 for  O read from file:
     /home/raja/pseudo/O.pbesol-nl-rrkjus.UPF
     MD5 check sum: c80495934389d02e713646931b6a7a51
     Pseudo is Ultrasoft + core correction, Zval =  6.0
     Generated using "atomic" code by A. Dal Corso  v.5.4.0
     Using radial grid of 1095 points,  4 beta functions with: 
                l(1) =   0
                l(2) =   0
                l(3) =   1
                l(4) =   1
     Q(r) pseudized with 0 coefficients 


     atomic species   valence    mass     pseudopotential
        Sn            14.00   118.71000     Sn( 1.00)
        O              6.00    15.99900      O( 1.00)

      8 Sym. Ops., with inversion, found



   Cartesian axes

     site n.     atom                  positions (alat units)
         1           Sn  tau(   1) = (   0.0000000   0.0000000   0.0000000  )
         2           Sn  tau(   2) = (   0.5000000   0.0000000   0.0000000  )
         3           Sn  tau(   3) = (   0.0000000   0.5000000   0.0000000  )
         4           Sn  tau(   4) = (   0.5000000   0.5000000   0.0000000  )
         5           Sn  tau(   5) = (   0.0000000   0.0000000   0.3365000  )
         6           Sn  tau(   6) = (   0.5000000   0.0000000   0.3365000  )
         7           Sn  tau(   7) = (   0.0000000   0.5000000   0.3365000  )
         8           Sn  tau(   8) = (   0.5000000   0.5000000   0.3365000  )
         9           Sn  tau(   9) = (   0.2500000   0.2500000   0.1682500  )
        10           Sn  tau(  10) = (   0.7500000   0.2500000   0.1682500  )
        11           Sn  tau(  11) = (   0.2500000   0.7500000   0.1682500  )
        12           Sn  tau(  12) = (   0.7500000   0.7500000   0.1682500  )
        13           Sn  tau(  13) = (   0.2500000   0.2500000   0.5047500  )
        14           Sn  tau(  14) = (   0.7500000   0.2500000   0.5047500  )
        15           Sn  tau(  15) = (   0.2500000   0.7500000   0.5047500  )
        16           Sn  tau(  16) = (   0.7500000   0.7500000   0.5047500  )
        17           O   tau(  17) = (   0.1535000   0.1535000   0.0000000  )
        18           O   tau(  18) = (   0.6535000   0.1535000   0.0000000  )
        19           O   tau(  19) = (   0.1535000   0.6535000   0.0000000  )
        20           O   tau(  20) = (   0.6535000   0.6535000   0.0000000  )
        21           O   tau(  21) = (   0.1535000   0.1535000   0.3365000  )
        22           O   tau(  22) = (   0.6535000   0.1535000   0.3365000  )
        23           O   tau(  23) = (   0.1535000   0.6535000   0.3365000  )
        24           O   tau(  24) = (   0.6535000   0.6535000   0.3365000  )
        25           O   tau(  25) = (   0.3465000   0.3465000   0.0000000  )
        26           O   tau(  26) = (   0.8465000   0.3465000   0.0000000  )
        27           O   tau(  27) = (   0.3465000   0.8465000   0.0000000  )
        28           O   tau(  28) = (   0.8465000   0.8465000   0.0000000  )
        29           O   tau(  29) = (   0.3465000   0.3465000   0.3365000  )
        30           O   tau(  30) = (   0.8465000   0.3465000   0.3365000  )
        31           O   tau(  31) = (   0.3465000   0.8465000   0.3365000  )
        32           O   tau(  32) = (   0.8465000   0.8465000   0.3365000  )
        33           O   tau(  33) = (   0.0965000   0.4035000   0.1682500  )
        34           O   tau(  34) = (   0.5965000   0.4035000   0.1682500  )
        35           O   tau(  35) = (   0.0965000   0.9035000   0.1682500  )
        36           O   tau(  36) = (   0.5965000   0.9035000   0.1682500  )
        37           O   tau(  37) = (   0.0965000   0.4035000   0.5047500  )
        38           O   tau(  38) = (   0.5965000   0.4035000   0.5047500  )
        39           O   tau(  39) = (   0.0965000   0.9035000   0.5047500  )
        40           O   tau(  40) = (   0.5965000   0.9035000   0.5047500  )
        41           O   tau(  41) = (   0.4035000   0.0965000   0.1682500  )
        42           O   tau(  42) = (   0.9035000   0.0965000   0.1682500  )
        43           O   tau(  43) = (   0.4035000   0.5965000   0.1682500  )
        44           O   tau(  44) = (   0.9035000   0.5965000   0.1682500  )
        45           O   tau(  45) = (   0.4035000   0.0965000   0.5047500  )
        46           O   tau(  46) = (   0.9035000   0.0965000   0.5047500  )
        47           O   tau(  47) = (   0.4035000   0.5965000   0.5047500  )
        48           O   tau(  48) = (   0.9035000   0.5965000   0.5047500  )

     number of k points=    60
                       cart. coord. in units 2pi/alat
        k(    1) = (   0.0833333   0.0833333   0.0742942), wk =   0.0222222
        k(    2) = (   0.0833333   0.0833333   0.2228826), wk =   0.0222222
        k(    3) = (   0.0833333   0.0833333   0.3714710), wk =   0.0222222
        k(    4) = (   0.0833333   0.0833333   0.5200594), wk =   0.0222222
        k(    5) = (   0.0833333   0.0833333   0.6686478), wk =   0.0222222
        k(    6) = (   0.0833333   0.2500000   0.0742942), wk =   0.0444444
        k(    7) = (   0.0833333   0.2500000   0.2228826), wk =   0.0444444
        k(    8) = (   0.0833333   0.2500000   0.3714710), wk =   0.0444444
        k(    9) = (   0.0833333   0.2500000   0.5200594), wk =   0.0444444
        k(   10) = (   0.0833333   0.2500000   0.6686478), wk =   0.0444444
        k(   11) = (   0.0833333   0.4166667   0.0742942), wk =   0.0444444
        k(   12) = (   0.0833333   0.4166667   0.2228826), wk =   0.0444444
        k(   13) = (   0.0833333   0.4166667   0.3714710), wk =   0.0444444
        k(   14) = (   0.0833333   0.4166667   0.5200594), wk =   0.0444444
        k(   15) = (   0.0833333   0.4166667   0.6686478), wk =   0.0444444
        k(   16) = (   0.2500000   0.2500000   0.0742942), wk =   0.0222222
        k(   17) = (   0.2500000   0.2500000   0.2228826), wk =   0.0222222
        k(   18) = (   0.2500000   0.2500000   0.3714710), wk =   0.0222222
        k(   19) = (   0.2500000   0.2500000   0.5200594), wk =   0.0222222
        k(   20) = (   0.2500000   0.2500000   0.6686478), wk =   0.0222222
        k(   21) = (   0.2500000   0.4166667   0.0742942), wk =   0.0444444
        k(   22) = (   0.2500000   0.4166667   0.2228826), wk =   0.0444444
        k(   23) = (   0.2500000   0.4166667   0.3714710), wk =   0.0444444
        k(   24) = (   0.2500000   0.4166667   0.5200594), wk =   0.0444444
        k(   25) = (   0.2500000   0.4166667   0.6686478), wk =   0.0444444
        k(   26) = (   0.4166667   0.4166667   0.0742942), wk =   0.0222222
        k(   27) = (   0.4166667   0.4166667   0.2228826), wk =   0.0222222
        k(   28) = (   0.4166667   0.4166667   0.3714710), wk =   0.0222222
        k(   29) = (   0.4166667   0.4166667   0.5200594), wk =   0.0222222
        k(   30) = (   0.4166667   0.4166667   0.6686478), wk =   0.0222222
        k(   31) = (  -0.0833333   0.0833333  -0.0742942), wk =   0.0222222
        k(   32) = (  -0.0833333   0.0833333  -0.2228826), wk =   0.0222222
        k(   33) = (  -0.0833333   0.0833333  -0.3714710), wk =   0.0222222
        k(   34) = (  -0.0833333   0.0833333  -0.5200594), wk =   0.0222222
        k(   35) = (  -0.0833333   0.0833333  -0.6686478), wk =   0.0222222
        k(   36) = (  -0.0833333   0.2500000  -0.0742942), wk =   0.0444444
        k(   37) = (  -0.0833333   0.2500000  -0.2228826), wk =   0.0444444
        k(   38) = (  -0.0833333   0.2500000  -0.3714710), wk =   0.0444444
        k(   39) = (  -0.0833333   0.2500000  -0.5200594), wk =   0.0444444
        k(   40) = (  -0.0833333   0.2500000  -0.6686478), wk =   0.0444444
        k(   41) = (  -0.0833333   0.4166667  -0.0742942), wk =   0.0444444
        k(   42) = (  -0.0833333   0.4166667  -0.2228826), wk =   0.0444444
        k(   43) = (  -0.0833333   0.4166667  -0.3714710), wk =   0.0444444
        k(   44) = (  -0.0833333   0.4166667  -0.5200594), wk =   0.0444444
        k(   45) = (  -0.0833333   0.4166667  -0.6686478), wk =   0.0444444
        k(   46) = (  -0.2500000   0.2500000  -0.0742942), wk =   0.0222222
        k(   47) = (  -0.2500000   0.2500000  -0.2228826), wk =   0.0222222
        k(   48) = (  -0.2500000   0.2500000  -0.3714710), wk =   0.0222222
        k(   49) = (  -0.2500000   0.2500000  -0.5200594), wk =   0.0222222
        k(   50) = (  -0.2500000   0.2500000  -0.6686478), wk =   0.0222222
        k(   51) = (  -0.2500000   0.4166667  -0.0742942), wk =   0.0444444
        k(   52) = (  -0.2500000   0.4166667  -0.2228826), wk =   0.0444444
        k(   53) = (  -0.2500000   0.4166667  -0.3714710), wk =   0.0444444
        k(   54) = (  -0.2500000   0.4166667  -0.5200594), wk =   0.0444444
        k(   55) = (  -0.2500000   0.4166667  -0.6686478), wk =   0.0444444
        k(   56) = (  -0.4166667   0.4166667  -0.0742942), wk =   0.0222222
        k(   57) = (  -0.4166667   0.4166667  -0.2228826), wk =   0.0222222
        k(   58) = (  -0.4166667   0.4166667  -0.3714710), wk =   0.0222222
        k(   59) = (  -0.4166667   0.4166667  -0.5200594), wk =   0.0222222
        k(   60) = (  -0.4166667   0.4166667  -0.6686478), wk =   0.0222222

     Dense  grid:  1006959 G-vectors     FFT dimensions: ( 144, 144,  96)

     Smooth grid:   254689 G-vectors     FFT dimensions: (  90,  90,  64)

     Largest allocated arrays     est. size (Mb)     dimensions
        Kohn-Sham Wavefunctions        31.28 Mb     (    8008,  256)
        NL pseudopotentials            66.47 Mb     (    8008,  544)
        Each V/rho on FFT grid          7.59 Mb     (  497664)
        Each G-vector array             1.92 Mb     (  251740)
        G-vector shells                 0.34 Mb     (   44913)
     Largest temporary arrays     est. size (Mb)     dimensions
        Auxiliary wavefunctions       125.12 Mb     (    8008, 1024)
        Each subspace H/S matrix       16.00 Mb     (    1024, 1024)
        Each <psi_i|beta_j> matrix      2.12 Mb     (     544,  256)
        Arrays for rho mixing          60.75 Mb     (  497664,    8)

     Initial potential from superposition of free atoms

     starting charge  415.97986, renormalised to  416.00000
     Starting wfc are  272 randomized atomic wfcs

     total cpu time spent up to now is     1108.5 secs

     Self-consistent Calculation

     iteration #  1     ecut=    60.00 Ry     beta=0.70
     Davidson diagonalization with overlap
     ethr =  1.00E-02,  avg # of iterations =  3.0

     total cpu time spent up to now is     4368.2 secs

     total energy              =   -3632.51136193 Ry
     Harris-Foulkes estimate   =   -3641.52539223 Ry
     estimated scf accuracy    <      11.99916694 Ry

     iteration #  2     ecut=    60.00 Ry     beta=0.70
     Davidson diagonalization with overlap
     ethr =  2.88E-03,  avg # of iterations =  3.6

     total cpu time spent up to now is     8858.1 secs

     total energy              =   -3635.34424653 Ry
     Harris-Foulkes estimate   =   -3642.23789235 Ry
     estimated scf accuracy    <      14.51702407 Ry

     iteration #  3     ecut=    60.00 Ry     beta=0.70
     Davidson diagonalization with overlap
     ethr =  2.88E-03,  avg # of iterations =  3.0

     total cpu time spent up to now is    12383.0 secs

     total energy              =   -3638.18483758 Ry
     Harris-Foulkes estimate   =   -3638.19246348 Ry
     estimated scf accuracy    <       0.04136406 Ry

     iteration #  4     ecut=    60.00 Ry     beta=0.70
     Davidson diagonalization with overlap
     c_bands:  1 eigenvalues not converged
     c_bands:  1 eigenvalues not converged
     c_bands:  1 eigenvalues not converged
     ethr =  9.94E-06,  avg # of iterations =  9.3

     total cpu time spent up to now is    18127.8 secs

     total energy              =   -3638.20097919 Ry
     Harris-Foulkes estimate   =   -3638.20127595 Ry
     estimated scf accuracy    <       0.00094654 Ry

     iteration #  5     ecut=    60.00 Ry     beta=0.70
     Davidson diagonalization with overlap
     ethr =  2.28E-07,  avg # of iterations =  5.4

     total cpu time spent up to now is    21792.5 secs

     total energy              =   -3638.20114171 Ry
     Harris-Foulkes estimate   =   -3638.20113699 Ry
     estimated scf accuracy    <       0.00006182 Ry

     iteration #  6     ecut=    60.00 Ry     beta=0.70
     Davidson diagonalization with overlap
     ethr =  1.49E-08,  avg # of iterations =  3.1

     total cpu time spent up to now is    25469.6 secs

     total energy              =   -3638.20114844 Ry
     Harris-Foulkes estimate   =   -3638.20115578 Ry
     estimated scf accuracy    <       0.00001544 Ry

     iteration #  7     ecut=    60.00 Ry     beta=0.70
     Davidson diagonalization with overlap
     ethr =  3.71E-09,  avg # of iterations =  3.1

     total cpu time spent up to now is    28958.6 secs

     total energy              =   -3638.20115212 Ry
     Harris-Foulkes estimate   =   -3638.20115547 Ry
     estimated scf accuracy    <       0.00000925 Ry

     iteration #  8     ecut=    60.00 Ry     beta=0.70
     Davidson diagonalization with overlap
     ethr =  2.22E-09,  avg # of iterations =  2.0

     total cpu time spent up to now is    32036.7 secs

     total energy              =   -3638.20115366 Ry
     Harris-Foulkes estimate   =   -3638.20115369 Ry
     estimated scf accuracy    <       0.00000006 Ry

     iteration #  9     ecut=    60.00 Ry     beta=0.70
     Davidson diagonalization with overlap
     ethr =  1.45E-11,  avg # of iterations =  3.0

     total cpu time spent up to now is    36685.2 secs

     total energy              =   -3638.20115370 Ry
     Harris-Foulkes estimate   =   -3638.20115372 Ry
     estimated scf accuracy    <       0.00000006 Ry

     iteration # 10     ecut=    60.00 Ry     beta=0.70
     Davidson diagonalization with overlap
     ethr =  1.44E-11,  avg # of iterations =  2.0

     total cpu time spent up to now is    39719.2 secs

     End of self-consistent calculation

          k = 0.0833 0.0833 0.0743 ( 31834 PWs)   bands (ev):

   -12.2458 -12.1825 -12.1825 -12.1749 -12.1749 -12.0493 -12.0389 -12.0345
   -12.0238 -12.0142 -12.0031 -11.9873 -11.9873 -11.8983 -11.8983 -11.6252
   -11.6156 -11.5949 -11.5927 -11.5549 -11.3857 -11.3856 -11.3775 -11.3770
   -11.3770 -11.3746 -11.3746 -11.3702 -11.3702 -11.3622 -11.3610 -11.3591
   -11.3587 -11.3540 -11.3524 -11.3439 -11.3439 -11.3406 -11.3406 -11.2835
   -11.2509 -11.2430 -11.2430 -11.2421 -11.2420 -11.2416 -11.2416 -11.2397
   -11.2395 -11.2167 -11.2167 -11.2094 -11.2080 -11.2075 -11.2075 -11.2011
   -11.1955 -11.1943 -11.1940 -11.1931 -11.1931 -11.1924 -11.1924 -11.1792
   -11.1580 -11.1538 -11.1537 -11.1532 -11.1531 -11.1501 -11.1496 -11.1493
   -11.1471 -11.1466 -11.1457 -11.1452 -11.1423 -11.1423 -11.1409 -11.1409
    -9.8695  -9.2520  -9.2520  -9.0309  -9.0309  -8.5280  -8.5280  -8.4868
    -8.4868  -8.4744  -8.4442  -8.2378  -8.2098  -8.1587  -8.1531  -8.1338
    -8.1050  -8.1033  -7.9726  -7.3028  -7.3028  -7.0947  -7.0947  -6.8805
    -6.8618  -6.8084  -6.7928  -6.6450  -6.6450  -6.6321  -6.6321  -6.5827
     0.7325   0.9030   0.9264   1.4422   1.7802   1.7908   1.7908   1.8724
     1.8724   2.0520   2.0520   2.5281   2.5281   3.0793   3.1911   3.3461
     3.3461   3.4294   3.4294   3.9095   3.9101   4.5806   4.6133   4.6426
     4.6426   4.6873   4.6873   4.7519   4.8053   4.8178   4.9112   4.9674
     5.0538   5.0946   5.4376   5.4376   5.6816   5.6816   5.7581   5.7832
     5.8132   5.8132   5.8202   5.8212   6.1186   6.1186   6.1473   6.2107
     6.2891   6.3231   6.6665   6.7202   6.7319   6.7319   6.7992   6.8192
     6.8530   6.9494   6.9494   7.0692   7.0692   7.1028   7.1028   7.1129
     7.3448   7.4410   7.4515   7.4602   7.4701   7.5269   7.5269   7.5401
     7.5401   7.5697   7.5824   7.7254   7.7254   7.7629   7.7629   7.8292
     7.8348   7.9126   7.9238   7.9529   7.9654   7.9654   7.9802   7.9885
     8.0093   8.0093   8.0517   8.1359   8.1359   8.1892   8.1892   8.7485
     9.5517  12.3401  12.3401  12.8859  12.8859  12.9329  13.0009  13.1122
    13.1242  14.1707  14.3087  14.4782  14.4782  14.4896  14.5665  14.5665
    14.7415  14.7432  15.4179  15.4179  15.4646  15.4646  15.8075  15.8101
    16.2960  16.2961  16.4263  16.4263  17.2099  17.2947  17.7475  18.1522
    18.6004  18.8841  18.9343  19.0223  19.0413  19.0413  19.1180  19.1180
    19.1474  19.1480  19.1801  19.1903  19.1903  19.2064  19.2221  19.2222

          k = 0.0833 0.0833 0.2229 ( 31808 PWs)   bands (ev):

   -12.2242 -12.1603 -12.1602 -12.1519 -12.1519 -12.0236 -12.0140 -12.0078
   -11.9973 -11.9932 -11.9822 -11.9731 -11.9731 -11.8859 -11.8859 -11.6988
   -11.6314 -11.6095 -11.5690 -11.4983 -11.4172 -11.4171 -11.4153 -11.4153
   -11.4035 -11.4025 -11.4018 -11.4012 -11.4012 -11.3997 -11.3737 -11.3737
   -11.3684 -11.3477 -11.3457 -11.3324 -11.3324 -11.3240 -11.3240 -11.2846
   -11.2492 -11.2426 -11.2426 -11.2397 -11.2397 -11.2379 -11.2377 -11.2357
   -11.2353 -11.2159 -11.2159 -11.2087 -11.2075 -11.2075 -11.2069 -11.2069
   -11.1948 -11.1948 -11.1948 -11.1945 -11.1927 -11.1927 -11.1908 -11.1794
   -11.1778 -11.1647 -11.1643 -11.1592 -11.1592 -11.1575 -11.1575 -11.1571
   -11.1570 -11.1570 -11.1563 -11.1563 -11.1528 -11.1525 -11.1525 -11.1520
    -9.8427  -9.2131  -9.2131  -8.9876  -8.9876  -8.7272  -8.5863  -8.5863
    -8.4789  -8.4789  -8.4388  -8.2328  -8.1696  -8.1383  -8.1380  -8.0372
    -8.0334  -7.9332  -7.8695  -7.2711  -7.2711  -7.0744  -7.0744  -6.9430
    -6.9209  -6.8690  -6.8492  -6.6757  -6.6757  -6.6570  -6.6570  -6.6143
     0.7296   0.9986   1.0224   1.1803   1.8067   1.8067   1.9623   1.9623
     2.0581   2.0581   2.1859   2.5361   2.5361   2.9595   3.0532   3.3727
     3.3727   3.4627   3.4627   4.0163   4.0167   4.5810   4.7177   4.7227
     4.7227   4.7297   4.7624   4.7624   4.8051   4.8625   4.9253   5.0103
     5.0415   5.0415   5.0492   5.2439   5.2482   5.2482   5.7121   5.8203
     5.8519   5.8832   6.0567   6.1085   6.1085   6.1321   6.2534   6.2612
     6.2720   6.4095   6.4095   6.5586   6.5919   6.6739   6.7151   6.7151
     6.7615   6.8886   6.9192   6.9192   7.0834   7.0834   7.1353   7.1353
     7.2654   7.2797   7.4467   7.4467   7.4792   7.4792   7.5658   7.5776
     7.5940   7.6323   7.6427   7.6755   7.6755   7.7814   7.7814   7.8492
     7.8518   7.9174   7.9280   7.9280   7.9383   7.9804   7.9904   8.0051
     8.0097   8.0097   8.0669   8.1182   8.1182   8.1771   8.1771   8.7129
     9.9091  12.4641  12.4641  12.9931  13.0031  13.0031  13.0604  13.1451
    13.1625  13.8016  14.3585  14.3585  14.4193  14.5330  14.5330  14.7520
    14.9520  14.9548  15.6034  15.6034  15.6483  15.6483  15.9534  15.9549
    16.3996  16.3996  16.5205  16.5205  17.2479  17.3289  17.4624  18.1820
    18.3538  18.5451  18.7939  18.8066  18.8066  18.9379  18.9379  18.9497
    18.9497  19.0364  19.0364  19.0392  19.0862  19.1316  19.1713  19.2919

          k = 0.0833 0.0833 0.3715 ( 31850 PWs)   bands (ev):

   -12.1827 -12.1181 -12.1181 -12.1078 -12.1078 -11.9743 -11.9677 -11.9558
   -11.9532 -11.9519 -11.9519 -11.9460 -11.9427 -11.8710 -11.8710 -11.7768
   -11.6629 -11.6383 -11.5305 -11.4786 -11.4779 -11.4746 -11.4710 -11.4690
   -11.4690 -11.4667 -11.4667 -11.4512 -11.4293 -11.4293 -11.3869 -11.3869
   -11.3535 -11.3348 -11.3331 -11.3209 -11.3209 -11.3114 -11.3114 -11.2889
   -11.2458 -11.2430 -11.2429 -11.2393 -11.2393 -11.2304 -11.2295 -11.2285
   -11.2278 -11.2146 -11.2146 -11.2139 -11.2073 -11.2061 -11.2061 -11.2061
   -11.2052 -11.1989 -11.1989 -11.1961 -11.1958 -11.1954 -11.1954 -11.1919
   -11.1909 -11.1873 -11.1812 -11.1812 -11.1809 -11.1797 -11.1795 -11.1795
   -11.1649 -11.1649 -11.1641 -11.1641 -11.1631 -11.1630 -11.1629 -11.1627
    -9.7879  -9.1429  -9.1429  -8.9908  -8.9103  -8.9103  -8.6633  -8.6633
    -8.4990  -8.4990  -8.3842  -8.2233  -8.1890  -8.1476  -8.0050  -7.9117
    -7.9039  -7.8484  -7.6085  -7.2104  -7.2104  -7.0618  -7.0351  -7.0351
    -7.0329  -6.9845  -6.9521  -6.7354  -6.7354  -6.7036  -6.7036  -6.6784
     0.7262   0.9877   1.1824   1.2074   1.8583   1.8583   2.0659   2.0659
     2.1038   2.1038   2.5458   2.5458   2.6589   2.7347   2.8047   3.4303
     3.4304   3.5214   3.5214   4.2215   4.2217   4.5186   4.6414   4.6414
     4.6650   4.7986   4.7986   4.8877   4.8877   4.9145   4.9197   4.9197
     4.9492   4.9772   4.9843   5.0646   5.0905   5.3999   5.6273   5.6859
     5.8702   5.9091   5.9115   5.9636   5.9943   6.1678   6.1962   6.2289
     6.2289   6.2385   6.2656   6.4283   6.4283   6.5938   6.6570   6.6778
     6.7445   6.7445   6.9426   6.9660   6.9988   6.9988   7.1183   7.1183
     7.1725   7.1725   7.3499   7.3499   7.4103   7.4103   7.6062   7.6062
     7.6794   7.7289   7.7306   7.7337   7.7694   7.7694   7.8083   7.8604
     7.8835   7.8918   7.8918   7.9249   7.9671   7.9760   8.0030   8.0043
     8.0043   8.0340   8.0676   8.0823   8.0823   8.1519   8.1519   8.6409
    10.4632  12.6892  12.6892  13.0921  13.1573  13.2002  13.2141  13.2141
    13.2255  13.3733  14.1658  14.1658  14.4321  14.4321  14.6058  14.9505
    15.3369  15.3445  15.9467  15.9467  15.9853  15.9853  16.2192  16.2196
    16.5893  16.5893  16.6962  16.6962  17.2399  17.2995  17.3686  17.7961
    18.0693  18.1126  18.4409  18.4409  18.5635  18.5635  18.6382  18.6382
    18.7022  18.7022  18.8527  18.9581  18.9791  19.0421  19.0977  19.2203

          k = 0.0833 0.0833 0.5201 ( 31882 PWs)   bands (ev):

   -12.1239 -12.0616 -12.0615 -12.0468 -12.0468 -11.9388 -11.9388 -11.9259
   -11.9065 -11.8996 -11.8897 -11.8817 -11.8738 -11.8738 -11.8723 -11.8322
   -11.7092 -11.6783 -11.5805 -11.5771 -11.5722 -11.5717 -11.5159 -11.5159
   -11.4982 -11.4981 -11.4681 -11.4681 -11.4607 -11.4156 -11.4145 -11.4144
   -11.3315 -11.3155 -11.3143 -11.3069 -11.3069 -11.2993 -11.2993 -11.2946
   -11.2512 -11.2512 -11.2490 -11.2490 -11.2410 -11.2396 -11.2290 -11.2253
   -11.2225 -11.2215 -11.2187 -11.2155 -11.2148 -11.2134 -11.2130 -11.2130
   -11.2079 -11.2079 -11.2054 -11.2053 -11.2052 -11.2046 -11.2046 -11.2043
   -11.1982 -11.1975 -11.1904 -11.1904 -11.1881 -11.1881 -11.1844 -11.1807
   -11.1761 -11.1761 -11.1752 -11.1752 -11.1740 -11.1740 -11.1728 -11.1728
    -9.7020  -9.2248  -9.0526  -9.0526  -8.8138  -8.8138  -8.7532  -8.7532
    -8.5476  -8.5476  -8.3296  -8.2149  -8.2100  -8.1612  -7.8280  -7.7459
    -7.7313  -7.7164  -7.4057  -7.2256  -7.1860  -7.1438  -7.1258  -7.1258
    -7.0656  -6.9794  -6.9794  -6.8194  -6.8194  -6.7755  -6.7663  -6.7663
     0.7273   0.8581   1.4407   1.4681   1.9314   1.9314   2.0663   2.0663
     2.2677   2.2677   2.4343   2.4852   2.5433   2.5433   3.1912   3.5331
     3.5331   3.6109   3.6109   4.2689   4.2689   4.3745   4.3745   4.4728
     4.5084   4.5087   4.5784   4.9982   5.0710   5.1082   5.1349   5.1349
     5.1421   5.1608   5.1608   5.1656   5.1857   5.2354   5.4935   5.5185
     5.7275   5.7612   5.8131   5.8254   5.9922   5.9941   6.0742   6.0742
     6.1561   6.1730   6.1730   6.1744   6.1903   6.4476   6.4863   6.4941
     6.5615   6.6436   6.8948   6.8948   7.1649   7.1649   7.1782   7.1782
     7.1895   7.1895   7.3021   7.3021   7.3794   7.3794   7.5096   7.5096
     7.7108   7.7108   7.7552   7.8288   7.8306   7.8346   7.8554   7.8848
     7.8848   7.9079   7.9346   7.9677   8.0009   8.0109   8.0109   8.0217
     8.0234   8.0260   8.0306   8.0306   8.0439   8.1156   8.1156   8.5331
    11.0888  12.8808  12.9809  12.9809  13.1945  13.2554  13.2557  13.2903
    13.4822  13.4822  13.9163  13.9163  14.2644  14.2644  14.8150  15.0659
    15.8447  15.8557  16.4002  16.4002  16.4202  16.4202  16.5579  16.5599
    16.8416  16.8416  16.9188  16.9188  17.1196  17.3061  17.3497  17.4742
    17.5788  17.5992  18.0349  18.0349  18.0933  18.0933  18.2926  18.2926
    18.2965  18.2965  18.6621  18.7841  18.8417  18.9894  19.1661  19.3377

          k = 0.0833 0.0833 0.6686 ( 31893 PWs)   bands (ev):

   -12.0524 -12.0010 -12.0010 -11.9768 -11.9767 -11.9753 -11.9542 -11.9542
   -11.9121 -11.9120 -11.8456 -11.8405 -11.8295 -11.7889 -11.7807 -11.7788
   -11.7668 -11.7103 -11.6845 -11.6821 -11.6774 -11.6668 -11.5307 -11.5307
   -11.5083 -11.5083 -11.4907 -11.4906 -11.4544 -11.4544 -11.4125 -11.3973
   -11.3039 -11.2927 -11.2903 -11.2899 -11.2899 -11.2893 -11.2855 -11.2855
   -11.2723 -11.2699 -11.2699 -11.2683 -11.2683 -11.2648 -11.2601 -11.2590
   -11.2350 -11.2286 -11.2116 -11.2116 -11.2110 -11.2109 -11.2061 -11.2059
   -11.2059 -11.2050 -11.2050 -11.2044 -11.2034 -11.2033 -11.2028 -11.2022
   -11.2002 -11.1989 -11.1903 -11.1900 -11.1895 -11.1895 -11.1895 -11.1890
   -11.1870 -11.1870 -11.1832 -11.1832 -11.1825 -11.1813 -11.1813 -11.1810
    -9.5813  -9.4225  -8.9528  -8.9528  -8.8511  -8.8511  -8.7131  -8.7131
    -8.6212  -8.6212  -8.2838  -8.2463  -8.1942  -8.1774  -7.6264  -7.5624
    -7.5482  -7.5345  -7.4194  -7.4009  -7.3642  -7.3327  -7.0430  -7.0254
    -7.0254  -6.9196  -6.9196  -6.9117  -6.9117  -6.9038  -6.8382  -6.8382
     0.7415   0.7805   1.7535   1.7851   2.0013   2.0013   2.0477   2.0477
     2.0951   2.1339   2.4137   2.4137   2.5065   2.5065   3.7041   3.7041
     3.7621   3.7621   3.7724   3.9518   3.9518   4.0159   4.0159   4.3803
     4.4706   4.5219   4.8465   4.8496   5.1124   5.1576   5.2119   5.2271
     5.3077   5.3298   5.4133   5.4267   5.4437   5.4437   5.4728   5.4728
     5.5755   5.6581   5.6976   5.7759   5.7759   5.7768   5.8265   5.8265
     6.0104   6.0612   6.0779   6.1299   6.2619   6.2631   6.2727   6.3240
     6.3849   6.4328   7.0610   7.0610   7.1620   7.1620   7.2110   7.2110
     7.2378   7.2378   7.3240   7.3240   7.3991   7.3991   7.4624   7.4624
     7.6031   7.6031   7.8037   7.8358   7.8878   7.9122   7.9156   7.9156
     7.9195   7.9247   7.9458   7.9572   7.9706   7.9706   7.9863   7.9957
     8.0256   8.0324   8.0365   8.0365   8.0744   8.0744   8.2199   8.3915
    11.7216  12.3262  13.2652  13.2845  13.3028  13.3028  13.3190  13.3291
    13.6229  13.6229  13.7683  13.7683  14.0378  14.0378  14.9887  15.0798
    16.4190  16.4332  16.8558  16.8558  16.8966  16.8966  16.9095  16.9097
    17.0040  17.0281  17.0556  17.0556  17.1087  17.1087  17.1295  17.1835
    17.1974  17.2434  17.6289  17.6289  17.6602  17.6602  17.9608  17.9608
    17.9933  17.9933  18.5714  18.6288  18.8031  18.8727  19.1685  19.3700

          k = 0.0833 0.2500 0.0743 ( 31813 PWs)   bands (ev):

   -12.2272 -12.1755 -12.1745 -12.1536 -12.1523 -12.0836 -12.0753 -12.0684
   -12.0486 -12.0396 -12.0167 -11.9932 -11.9839 -11.9109 -11.8078 -11.6135
   -11.5949 -11.5944 -11.5430 -11.5144 -11.4232 -11.4231 -11.3839 -11.3782
   -11.3781 -11.3778 -11.3750 -11.3723 -11.3708 -11.3649 -11.3623 -11.3598
   -11.3571 -11.3534 -11.3496 -11.3472 -11.3455 -11.3416 -11.3365 -11.2969
   -11.2477 -11.2450 -11.2447 -11.2431 -11.2431 -11.2427 -11.2423 -11.2414
   -11.2408 -11.2262 -11.2158 -11.2110 -11.2072 -11.2072 -11.2001 -11.1989
   -11.1951 -11.1945 -11.1941 -11.1935 -11.1934 -11.1925 -11.1924 -11.1814
   -11.1563 -11.1533 -11.1531 -11.1519 -11.1516 -11.1487 -11.1486 -11.1483
   -11.1478 -11.1474 -11.1469 -11.1458 -11.1452 -11.1432 -11.1419 -11.1413
    -9.8264  -9.4490  -9.1925  -8.9676  -8.7972  -8.7080  -8.5405  -8.4947
    -8.4651  -8.4623  -8.4317  -8.4208  -8.2326  -8.1944  -8.1910  -8.1678
    -8.0340  -7.9715  -7.7248  -7.5189  -7.3827  -7.1671  -6.9110  -6.8573
    -6.8097  -6.7977  -6.7564  -6.6823  -6.6766  -6.6469  -6.6408  -6.6066
     0.8245   0.9647   1.0336   1.4659   1.5688   1.6305   1.6867   1.7104
     1.8019   1.9018   2.1504   2.6162   2.8486   3.0403   3.1372   3.4198
     3.5464   3.6358   3.7053   3.9430   3.9447   4.3509   4.4795   4.4974
     4.5693   4.6163   4.6536   4.7220   4.7473   4.8406   4.9874   5.0337
     5.0430   5.2213   5.2459   5.2541   5.4188   5.5453   5.6629   5.7435
     5.7435   5.7652   5.8525   5.8964   5.9376   6.0562   6.3280   6.4602
     6.4839   6.5768   6.6667   6.6859   6.7357   6.7886   6.8858   6.9094
     6.9436   7.0283   7.0899   7.1093   7.1191   7.1341   7.1703   7.2097
     7.3884   7.4405   7.4630   7.4674   7.4906   7.5076   7.5090   7.5302
     7.5439   7.5651   7.5996   7.6064   7.6498   7.7197   7.7403   7.7750
     7.7910   7.7912   7.8313   7.8717   7.9356   7.9361   7.9389   7.9611
     7.9627   7.9680   8.0553   8.1015   8.1044   8.1586   8.2817   8.6828
     9.9395  11.7386  12.4098  12.8197  12.9121  13.0195  13.2331  13.2732
    13.3508  14.1740  14.1893  14.1893  14.3098  14.3758  14.5111  14.6033
    14.8002  14.8672  15.2726  15.3932  15.4746  15.5134  15.7606  15.7687
    16.3708  16.4391  16.7190  16.7416  17.0868  17.3236  17.4080  17.9294
    18.7126  18.9169  18.9992  19.0185  19.0379  19.0583  19.0670  19.1252
    19.1282  19.1341  19.1572  19.1996  19.2090  19.2091  19.2094  19.3015

          k = 0.0833 0.2500 0.2229 ( 31826 PWs)   bands (ev):

   -12.2063 -12.1530 -12.1529 -12.1307 -12.1287 -12.0595 -12.0527 -12.0521
   -12.0229 -12.0140 -11.9963 -11.9781 -11.9641 -11.8974 -11.7962 -11.6567
   -11.6096 -11.5926 -11.5560 -11.4681 -11.4510 -11.4365 -11.4177 -11.4158
   -11.4132 -11.4126 -11.4069 -11.4061 -11.4034 -11.4016 -11.3913 -11.3698
   -11.3646 -11.3469 -11.3416 -11.3412 -11.3351 -11.3264 -11.3158 -11.2906
   -11.2461 -11.2446 -11.2432 -11.2409 -11.2394 -11.2387 -11.2382 -11.2381
   -11.2365 -11.2252 -11.2151 -11.2102 -11.2067 -11.2066 -11.2059 -11.1986
   -11.1975 -11.1949 -11.1949 -11.1939 -11.1929 -11.1912 -11.1908 -11.1816
   -11.1755 -11.1641 -11.1628 -11.1628 -11.1597 -11.1573 -11.1573 -11.1572
   -11.1562 -11.1561 -11.1559 -11.1544 -11.1537 -11.1534 -11.1526 -11.1524
    -9.7989  -9.4141  -9.1534  -8.9246  -8.7489  -8.7288  -8.6697  -8.6622
    -8.5438  -8.4300  -8.4256  -8.3465  -8.2529  -8.1703  -8.1294  -7.9682
    -7.9393  -7.9308  -7.6909  -7.4767  -7.3502  -7.1450  -6.9163  -6.9027
    -6.8608  -6.8557  -6.8020  -6.7167  -6.7146  -6.6751  -6.6633  -6.6322
     0.8228   1.0550   1.1257   1.2297   1.6150   1.6305   1.6348   1.7852
     2.0703   2.1483   2.1776   2.6107   2.7671   3.0214   3.0505   3.4342
     3.5780   3.6825   3.7486   4.0497   4.0508   4.2842   4.5003   4.6354
     4.6417   4.6999   4.7422   4.7563   4.7744   4.8154   4.8773   5.0268
     5.0518   5.0922   5.0938   5.1257   5.2186   5.2445   5.4833   5.6985
     5.8025   5.8258   5.9202   5.9775   6.0497   6.1515   6.2467   6.3465
     6.4786   6.5666   6.6030   6.6399   6.6602   6.6915   6.7198   6.8774
     6.8864   6.9647   7.0182   7.0645   7.0654   7.1344   7.1727   7.2313
     7.2747   7.3131   7.3987   7.4356   7.4767   7.4785   7.4892   7.5098
     7.5761   7.6085   7.6198   7.6722   7.6780   7.7765   7.7818   7.7856
     7.7910   7.7940   7.8111   7.8805   7.9506   7.9541   7.9644   7.9780
     7.9801   7.9996   8.0669   8.0898   8.0981   8.1624   8.2795   8.6578
    10.2179  11.8777  12.5239  12.8878  13.0207  13.0858  13.2531  13.3075
    13.4671  13.8376  14.1090  14.1776  14.2833  14.3084  14.6595  14.7528
    15.0070  15.0649  15.4606  15.5755  15.6552  15.6924  15.9129  15.9184
    16.4545  16.5226  16.7943  16.8032  17.1281  17.2534  17.3542  18.0252
    18.2892  18.5887  18.7326  18.7829  18.8482  18.9283  18.9307  18.9356
    18.9461  18.9626  19.0293  19.0804  19.0825  19.1501  19.1685  19.4269

          k = 0.0833 0.2500 0.3715 ( 31858 PWs)   bands (ev):

   -12.1662 -12.1129 -12.1101 -12.0872 -12.0831 -12.0246 -12.0138 -12.0129
   -11.9737 -11.9644 -11.9584 -11.9539 -11.9276 -11.8787 -11.7864 -11.7231
   -11.6390 -11.5811 -11.5681 -11.4916 -11.4777 -11.4759 -11.4746 -11.4710
   -11.4704 -11.4679 -11.4653 -11.4643 -11.4629 -11.4275 -11.4085 -11.3682
   -11.3510 -11.3343 -11.3303 -11.3294 -11.3236 -11.3140 -11.3028 -11.2892
   -11.2440 -11.2429 -11.2420 -11.2389 -11.2351 -11.2331 -11.2331 -11.2314
   -11.2289 -11.2233 -11.2137 -11.2120 -11.2088 -11.2058 -11.2054 -11.2026
   -11.2011 -11.1985 -11.1981 -11.1966 -11.1953 -11.1953 -11.1923 -11.1908
   -11.1886 -11.1875 -11.1845 -11.1826 -11.1819 -11.1806 -11.1804 -11.1793
   -11.1649 -11.1647 -11.1638 -11.1634 -11.1633 -11.1629 -11.1629 -11.1622
    -9.7436  -9.3497  -9.0831  -8.9777  -8.8482  -8.7938  -8.6633  -8.6155
    -8.6045  -8.4504  -8.3684  -8.3091  -8.2878  -8.1794  -8.0108  -7.8458
    -7.8445  -7.7243  -7.6219  -7.3963  -7.2874  -7.1018  -7.0282  -6.9662
    -6.9569  -6.8863  -6.8770  -6.7891  -6.7825  -6.7282  -6.7014  -6.6833
     0.8210   1.0547   1.2281   1.3032   1.6041   1.6407   1.7040   1.9224
     2.1378   2.3071   2.5908   2.6018   2.6242   2.8041   3.0626   3.4774
     3.6365   3.7476   3.8163   4.2335   4.2534   4.2550   4.4564   4.5367
     4.6939   4.7283   4.7964   4.8236   4.8710   4.8730   4.8984   4.9099
     4.9632   4.9934   5.0032   5.0398   5.1574   5.1599   5.2202   5.5884
     5.6152   5.8560   5.9607   6.0136   6.0472   6.1082   6.1697   6.2647
     6.3617   6.4296   6.4746   6.5343   6.5604   6.6064   6.6767   6.7385
     6.7763   6.9308   6.9712   6.9828   7.0312   7.0481   7.1610   7.1727
     7.2336   7.2526   7.2547   7.3596   7.3620   7.4009   7.4471   7.5763
     7.5826   7.6751   7.7106   7.7374   7.7478   7.7641   7.7671   7.8043
     7.8371   7.8598   7.8909   7.9073   7.9705   7.9714   7.9817   8.0169
     8.0292   8.0464   8.0557   8.0637   8.0801   8.1570   8.2675   8.6019
    10.6865  12.1313  12.7307  13.0034  13.1958  13.2150  13.2843  13.3613
    13.4225  13.6736  13.9039  13.9819  14.2193  14.5084  14.6545  14.9337
    15.3860  15.4321  15.8093  15.9073  15.9887  16.0210  16.1904  16.1932
    16.6114  16.6816  16.9209  16.9261  17.1172  17.1946  17.3894  17.8901
    17.9023  18.1527  18.3179  18.4314  18.4361  18.5621  18.6798  18.7002
    18.7095  18.7385  18.8223  18.8904  18.9409  18.9790  19.0269  19.3857

          k = 0.0833 0.2500 0.5201 ( 31866 PWs)   bands (ev):

   -12.1106 -12.0618 -12.0524 -12.0278 -12.0186 -11.9971 -11.9758 -11.9528
   -11.9357 -11.9108 -11.9059 -11.8940 -11.8819 -11.8740 -11.8049 -11.7691
   -11.6791 -11.6147 -11.6145 -11.5719 -11.5682 -11.5589 -11.5362 -11.5329
   -11.5252 -11.5064 -11.4992 -11.4815 -11.4576 -11.4382 -11.3981 -11.3804
   -11.3297 -11.3156 -11.3144 -11.3117 -11.3090 -11.3011 -11.2928 -11.2911
   -11.2514 -11.2492 -11.2458 -11.2444 -11.2423 -11.2386 -11.2346 -11.2292
   -11.2261 -11.2222 -11.2209 -11.2160 -11.2122 -11.2121 -11.2120 -11.2100
   -11.2090 -11.2084 -11.2070 -11.2049 -11.2048 -11.2039 -11.2031 -11.1982
   -11.1980 -11.1963 -11.1942 -11.1920 -11.1896 -11.1870 -11.1849 -11.1828
   -11.1759 -11.1756 -11.1754 -11.1749 -11.1743 -11.1735 -11.1733 -11.1716
    -9.6586  -9.2636  -9.2000  -8.9933  -8.9242  -8.7534  -8.7011  -8.5580
    -8.5287  -8.4967  -8.3339  -8.3165  -8.3105  -8.1975  -7.8588  -7.7114
    -7.6815  -7.5895  -7.5179  -7.2858  -7.1994  -7.1810  -7.1189  -7.0870
    -7.0402  -6.9389  -6.8946  -6.8739  -6.8619  -6.7998  -6.7581  -6.7463
     0.8229   0.9382   1.4698   1.5532   1.6067   1.6431   1.8222   2.0995
     2.1076   2.3602   2.5139   2.5394   2.5767   3.0558   3.1289   3.5690
     3.7274   3.8166   3.8937   4.2145   4.2255   4.3536   4.3769   4.4402
     4.5264   4.5341   4.5394   4.7328   4.9319   5.0331   5.0365   5.0386
     5.0820   5.0907   5.1111   5.1256   5.1842   5.1975   5.3066   5.3696
     5.5088   5.6947   5.7838   5.9380   5.9844   5.9881   6.0001   6.0969
     6.1660   6.2664   6.4281   6.4620   6.4648   6.5215   6.5688   6.6114
     6.6420   6.8052   6.8435   6.8741   7.0438   7.1036   7.1130   7.1477
     7.1784   7.2569   7.2814   7.3154   7.3287   7.4238   7.4753   7.4911
     7.6281   7.6504   7.7408   7.7414   7.7726   7.8101   7.8124   7.8505
     7.8556   7.9102   7.9575   7.9874   7.9913   8.0014   8.0153   8.0364
     8.0412   8.0449   8.0599   8.0841   8.0880   8.1351   8.2411   8.5108
    11.2486  12.4630  12.9454  12.9960  13.1319  13.3068  13.3123  13.4112
    13.4577  13.5783  13.7959  13.9291  14.1043  14.5724  14.7325  15.0317
    15.8843  15.9197  16.2749  16.3289  16.4257  16.4470  16.5428  16.5494
    16.8317  16.8983  17.0570  17.0603  17.0690  17.2420  17.3680  17.5230
    17.5473  17.6366  17.8893  17.9289  18.0501  18.1126  18.3288  18.3575
    18.4317  18.4944  18.5250  18.6696  18.7099  18.8575  19.2000  19.3710

          k = 0.0833 0.2500 0.6686 ( 31885 PWs)   bands (ev):

   -12.0465 -12.0136 -11.9909 -11.9890 -11.9887 -11.9614 -11.9457 -11.9417
   -11.9033 -11.8937 -11.8754 -11.8635 -11.8395 -11.8395 -11.8073 -11.7474
   -11.7104 -11.7101 -11.6664 -11.6664 -11.6418 -11.6268 -11.5720 -11.5701
   -11.5502 -11.5352 -11.5075 -11.4766 -11.4561 -11.4130 -11.4107 -11.3873
   -11.3030 -11.2942 -11.2910 -11.2907 -11.2888 -11.2881 -11.2856 -11.2823
   -11.2724 -11.2715 -11.2690 -11.2667 -11.2659 -11.2649 -11.2619 -11.2591
   -11.2332 -11.2274 -11.2184 -11.2162 -11.2109 -11.2107 -11.2081 -11.2060
   -11.2054 -11.2046 -11.2045 -11.2028 -11.2024 -11.2022 -11.2011 -11.1989
   -11.1989 -11.1966 -11.1927 -11.1909 -11.1898 -11.1892 -11.1887 -11.1885
   -11.1882 -11.1857 -11.1851 -11.1841 -11.1832 -11.1826 -11.1812 -11.1801
    -9.5413  -9.3887  -9.1618  -9.0478  -8.8948  -8.7956  -8.6555  -8.5669
    -8.4551  -8.4531  -8.3897  -8.3675  -8.2622  -8.2249  -7.7025  -7.5889
    -7.5429  -7.4936  -7.3849  -7.3590  -7.3001  -7.2355  -7.1564  -7.0939
    -7.0213  -6.9815  -6.9646  -6.9268  -6.8816  -6.8483  -6.8298  -6.7906
     0.8356   0.8697   1.6228   1.6374   1.7591   1.8560   1.9448   2.0446
     2.0675   2.1864   2.2839   2.4383   2.8270   2.9913   3.6758   3.7323
     3.8742   3.9205   3.9606   3.9951   4.1000   4.1438   4.1584   4.1789
     4.2423   4.3835   4.8279   4.8679   4.9104   4.9410   5.0150   5.0807
     5.0963   5.3437   5.3450   5.4052   5.4117   5.4355   5.4615   5.5121
     5.5121   5.5252   5.6241   5.6856   5.7475   5.7498   5.7776   5.8845
     5.8898   6.0223   6.2477   6.3550   6.4470   6.4793   6.5871   6.6043
     6.6996   6.7331   6.7457   6.9082   6.9792   7.1215   7.1272   7.1285
     7.2311   7.2383   7.2538   7.2540   7.3750   7.4269   7.4293   7.5297
     7.6486   7.6711   7.7088   7.7677   7.7806   7.8026   7.8546   7.9031
     7.9265   7.9304   7.9484   7.9560   7.9864   7.9976   8.0001   8.0022
     8.0568   8.0906   8.0992   8.0998   8.1481   8.2005   8.2263   8.3845
    11.8377  12.4120  12.8354  13.2158  13.2375  13.2828  13.2965  13.3979
    13.4303  13.5578  13.7083  13.9316  14.1888  14.4127  14.9216  15.0289
    16.4424  16.4762  16.7483  16.8105  16.8674  16.9076  16.9093  16.9133
    16.9825  17.0094  17.0498  17.0886  17.1444  17.1445  17.1602  17.1728
    17.2105  17.2885  17.3850  17.4910  17.6836  17.7058  18.0389  18.0845
    18.2618  18.3015  18.3503  18.4305  18.6361  18.7024  19.4072  19.4591

          k = 0.0833 0.4167 0.0743 ( 31839 PWs)   bands (ev):

   -12.1907 -12.1546 -12.1515 -12.1372 -12.1222 -12.1211 -12.1175 -12.1165
   -12.0825 -12.0762 -12.0119 -12.0029 -11.9592 -11.9331 -11.7244 -11.6574
   -11.5425 -11.5405 -11.4801 -11.4797 -11.4783 -11.4587 -11.4229 -11.4092
   -11.3786 -11.3784 -11.3719 -11.3690 -11.3682 -11.3660 -11.3653 -11.3619
   -11.3542 -11.3510 -11.3508 -11.3483 -11.3466 -11.3439 -11.3290 -11.3151
   -11.2454 -11.2453 -11.2446 -11.2443 -11.2438 -11.2438 -11.2431 -11.2424
   -11.2423 -11.2350 -11.2147 -11.2127 -11.2071 -11.2070 -11.1984 -11.1965
   -11.1940 -11.1940 -11.1938 -11.1930 -11.1930 -11.1927 -11.1915 -11.1855
   -11.1530 -11.1520 -11.1516 -11.1501 -11.1500 -11.1497 -11.1495 -11.1490
   -11.1481 -11.1475 -11.1468 -11.1461 -11.1460 -11.1448 -11.1439 -11.1434
    -9.7406  -9.6137  -9.0772  -8.9126  -8.8456  -8.6736  -8.5659  -8.5271
    -8.4974  -8.4247  -8.3569  -8.3438  -8.3399  -8.3303  -8.2581  -8.2468
    -7.9026  -7.7351  -7.7250  -7.5324  -7.4965  -7.3052  -6.8032  -6.7652
    -6.7646  -6.7450  -6.7389  -6.7200  -6.7110  -6.6866  -6.6691  -6.6642
     1.0076   1.1071   1.2170   1.2786   1.3178   1.4574   1.5147   1.5897
     1.8401   1.8816   2.3348   2.5805   2.7754   2.9696   3.5650   3.6432
     3.8451   3.9186   3.9331   3.9713   3.9738   3.9800   4.0689   4.2247
     4.5555   4.6108   4.6241   4.7990   4.8218   4.8781   4.9163   4.9178
     5.0448   5.1281   5.1936   5.2540   5.3161   5.3441   5.4537   5.5997
     5.7133   5.7162   5.8919   5.9627   6.0412   6.1862   6.2438   6.4073
     6.6670   6.7458   6.7637   6.8353   6.9128   6.9241   6.9317   6.9818
     7.0174   7.0384   7.1239   7.1291   7.1575   7.2510   7.2614   7.3400
     7.3517   7.4068   7.4544   7.4707   7.4741   7.4798   7.4877   7.4903
     7.5105   7.5172   7.5354   7.5936   7.6037   7.6718   7.6879   7.7064
     7.7127   7.7522   7.7933   7.8044   7.8480   7.8651   7.8810   7.9080
     7.9852   8.0334   8.0456   8.0666   8.0828   8.1025   8.4157   8.5626
    10.4958  11.1121  12.5314  12.6776  12.9552  12.9980  13.4728  13.5496
    13.7202  13.8036  13.9201  13.9949  14.2279  14.2895  14.5482  14.5873
    14.9182  15.0459  15.0869  15.2361  15.5702  15.5972  15.6753  15.6914
    16.6288  16.6887  16.9159  16.9999  17.0505  17.1099  17.2523  17.5372
    18.8872  18.9703  18.9751  18.9884  19.0142  19.0475  19.0554  19.0913
    19.1004  19.1513  19.1588  19.1790  19.1845  19.1923  19.3076  19.5397

          k = 0.0833 0.4167 0.2229 ( 31845 PWs)   bands (ev):

   -12.1709 -12.1319 -12.1305 -12.1189 -12.0990 -12.0978 -12.0954 -12.0935
   -12.0585 -12.0517 -11.9930 -11.9858 -11.9411 -11.9173 -11.7117 -11.6411
   -11.5902 -11.5563 -11.5173 -11.4929 -11.4915 -11.4325 -11.4252 -11.4165
   -11.4129 -11.4126 -11.4096 -11.4094 -11.4093 -11.4060 -11.4053 -11.3885
   -11.3581 -11.3499 -11.3438 -11.3395 -11.3361 -11.3306 -11.3076 -11.2990
   -11.2442 -11.2429 -11.2417 -11.2414 -11.2413 -11.2409 -11.2404 -11.2382
   -11.2377 -11.2337 -11.2138 -11.2120 -11.2064 -11.2063 -11.2032 -11.2006
   -11.1949 -11.1949 -11.1935 -11.1931 -11.1914 -11.1906 -11.1905 -11.1856
   -11.1716 -11.1671 -11.1626 -11.1611 -11.1609 -11.1591 -11.1563 -11.1562
   -11.1550 -11.1548 -11.1547 -11.1546 -11.1546 -11.1541 -11.1533 -11.1533
    -9.7116  -9.5822  -9.0378  -8.8734  -8.8035  -8.7254  -8.7066  -8.6331
    -8.5123  -8.4642  -8.3603  -8.3459  -8.2974  -8.2496  -8.2009  -8.0582
    -7.8429  -7.6983  -7.6733  -7.4981  -7.4671  -7.2799  -6.8541  -6.8168
    -6.7868  -6.7807  -6.7691  -6.7654  -6.7444  -6.7205  -6.6942  -6.6799
     1.0078   1.1873   1.2810   1.3020   1.3261   1.3835   1.4635   1.5350
     2.1299   2.1606   2.3157   2.5348   2.7427   2.8972   3.5778   3.6353
     3.8999   3.9359   3.9948   4.0117   4.0681   4.0826   4.0830   4.3481
     4.5942   4.6956   4.7085   4.7210   4.7670   4.7837   4.8798   4.8833
     4.9617   5.0567   5.0629   5.1929   5.2238   5.2301   5.3159   5.5616
     5.7291   5.8501   5.9493   5.9618   6.0551   6.0999   6.2338   6.2479
     6.6043   6.6052   6.6512   6.7448   6.8253   6.8900   6.9189   6.9717
     6.9795   6.9915   7.0824   7.1513   7.1523   7.1928   7.2134   7.3036
     7.3272   7.3456   7.3480   7.3487   7.4354   7.4436   7.4603   7.5077
     7.5079   7.5390   7.6095   7.6478   7.6527   7.6831   7.6887   7.7203
     7.7472   7.7506   7.7711   7.8642   7.8808   7.9129   7.9167   7.9425
     8.0074   8.0600   8.0693   8.0702   8.0767   8.1267   8.4155   8.5524
    10.7062  11.2782  12.6298  12.7594  13.0496  13.0770  13.4735  13.5703
    13.7774  13.8387  13.9109  13.9190  14.0242  14.1157  14.7250  14.7484
    15.1181  15.2341  15.2798  15.4194  15.7421  15.7675  15.8371  15.8508
    16.6604  16.7486  16.9529  16.9628  17.0907  17.1732  17.2835  17.6025
    18.4621  18.6287  18.6635  18.7503  18.7791  18.8311  18.8913  18.9015
    19.0059  19.0188  19.0238  19.0357  19.0735  19.0735  19.4656  19.6349

          k = 0.0833 0.4167 0.3715 ( 31847 PWs)   bands (ev):

   -12.1336 -12.0924 -12.0887 -12.0860 -12.0578 -12.0552 -12.0539 -12.0467
   -12.0128 -12.0039 -11.9592 -11.9570 -11.9099 -11.8925 -11.7034 -11.6473
   -11.6283 -11.5830 -11.5669 -11.5186 -11.5140 -11.4756 -11.4737 -11.4731
   -11.4730 -11.4726 -11.4702 -11.4626 -11.4624 -11.4528 -11.3956 -11.3724
   -11.3459 -11.3389 -11.3319 -11.3280 -11.3243 -11.3187 -11.2957 -11.2911
   -11.2423 -11.2399 -11.2384 -11.2380 -11.2372 -11.2367 -11.2344 -11.2322
   -11.2313 -11.2306 -11.2124 -11.2106 -11.2092 -11.2063 -11.2054 -11.2052
   -11.1979 -11.1971 -11.1951 -11.1951 -11.1950 -11.1913 -11.1900 -11.1891
   -11.1882 -11.1881 -11.1856 -11.1856 -11.1850 -11.1826 -11.1797 -11.1794
   -11.1646 -11.1644 -11.1639 -11.1639 -11.1635 -11.1631 -11.1619 -11.1616
    -9.6547  -9.5223  -8.9677  -8.9460  -8.8871  -8.8045  -8.7294  -8.5640
    -8.5266  -8.4168  -8.4103  -8.3647  -8.2640  -8.1905  -8.1052  -7.9029
    -7.7309  -7.6248  -7.5757  -7.4312  -7.4086  -7.2300  -6.9501  -6.9176
    -6.8656  -6.8598  -6.8540  -6.7946  -6.7842  -6.7764  -6.7324  -6.7104
     1.0086   1.1854   1.2845   1.3404   1.3728   1.4657   1.5083   1.6828
     2.2688   2.4345   2.4547   2.5567   2.6667   2.7483   3.5920   3.6487
     3.9147   3.9822   4.0874   4.0912   4.1404   4.2417   4.2744   4.4977
     4.4982   4.5436   4.7017   4.7749   4.7929   4.8702   4.8709   4.8815
     4.9205   4.9219   4.9349   5.0140   5.0704   5.1764   5.2072   5.4151
     5.5041   5.7747   5.9412   6.0638   6.0663   6.1366   6.2398   6.2517
     6.4082   6.4893   6.5566   6.6238   6.7233   6.7713   6.8004   6.8295
     6.8468   6.9065   6.9433   7.0378   7.0418   7.1286   7.1311   7.1384
     7.1860   7.2718   7.3193   7.3487   7.4005   7.4728   7.4762   7.5083
     7.5809   7.5879   7.6536   7.6681   7.6776   7.6826   7.6954   7.7038
     7.8304   7.8754   7.8861   7.9119   7.9464   7.9669   7.9770   8.0004
     8.0305   8.0526   8.0578   8.0667   8.1119   8.1485   8.4017   8.5202
    11.0798  11.5795  12.8063  12.9028  13.2121  13.2157  13.4662  13.5245
    13.5978  13.6848  13.7174  13.9050  14.0457  14.3226  14.8055  14.8913
    15.4866  15.5806  15.6367  15.7537  16.0584  16.0803  16.1330  16.1437
    16.7403  16.8643  16.9288  17.0486  17.1622  17.2465  17.3280  17.5985
    18.0416  18.1955  18.2255  18.3182  18.4645  18.5618  18.5677  18.6047
    18.7327  18.7580  18.7889  18.8782  18.8981  18.9361  19.3074  19.6599

          k = 0.0833 0.4167 0.5201 ( 31830 PWs)   bands (ev):

   -12.0845 -12.0471 -12.0463 -12.0308 -12.0179 -11.9967 -11.9948 -11.9799
   -11.9516 -11.9355 -11.9297 -11.9212 -11.8771 -11.8748 -11.7356 -11.6921
   -11.6700 -11.6175 -11.6127 -11.5599 -11.5585 -11.5528 -11.5479 -11.5454
   -11.5411 -11.5405 -11.5215 -11.4836 -11.4680 -11.4595 -11.3775 -11.3687
   -11.3261 -11.3210 -11.3143 -11.3118 -11.3081 -11.3043 -11.2887 -11.2880
   -11.2494 -11.2460 -11.2453 -11.2409 -11.2402 -11.2385 -11.2351 -11.2341
   -11.2320 -11.2281 -11.2199 -11.2164 -11.2122 -11.2106 -11.2096 -11.2089
   -11.2076 -11.2068 -11.2054 -11.2043 -11.2042 -11.2040 -11.2040 -11.1990
   -11.1968 -11.1944 -11.1943 -11.1919 -11.1916 -11.1865 -11.1864 -11.1855
   -11.1754 -11.1754 -11.1754 -11.1749 -11.1749 -11.1740 -11.1719 -11.1712
    -9.5708  -9.4382  -9.1456  -9.0551  -8.8794  -8.7200  -8.6391  -8.6037
    -8.4833  -8.4743  -8.4054  -8.2996  -8.2944  -8.0707  -8.0575  -7.8231
    -7.5798  -7.5164  -7.4427  -7.3357  -7.3225  -7.1578  -7.0801  -7.0584
    -6.9790  -6.9717  -6.9674  -6.8704  -6.8324  -6.7850  -6.7672  -6.7530
     1.0115   1.0952   1.2877   1.3219   1.5519   1.6775   1.6947   1.8851
     2.1809   2.2709   2.5273   2.5341   2.8255   3.0074   3.5760   3.7067
     3.9318   4.0411   4.0667   4.1502   4.2617   4.2651   4.4161   4.4262
     4.5198   4.5532   4.5796   4.5883   4.7049   4.7323   4.8384   4.8412
     4.8853   4.9086   5.0482   5.1338   5.1458   5.1528   5.2396   5.2826
     5.6905   5.7665   5.8499   5.8839   5.8930   5.9737   6.0233   6.2130
     6.3176   6.3681   6.4065   6.4114   6.6360   6.7218   6.7392   6.7794
     6.7888   6.8034   6.8461   6.9629   6.9667   6.9669   7.0595   7.0634
     7.0766   7.1812   7.2267   7.3262   7.3958   7.5016   7.5125   7.5334
     7.5775   7.6117   7.6229   7.6686   7.6799   7.7547   7.7805   7.8343
     7.8901   7.9004   7.9485   7.9814   8.0061   8.0218   8.0351   8.0410
     8.0555   8.0587   8.0701   8.0969   8.1358   8.1497   8.3646   8.4569
    11.5532  11.9719  13.0272  13.0739  13.0804  13.2923  13.3658  13.4159
    13.4341  13.6095  13.6128  13.8586  14.2935  14.5612  14.8037  14.9513
    15.9742  16.0342  16.1126  16.1819  16.4681  16.4873  16.5117  16.5247
    16.8817  16.9690  17.0210  17.1471  17.2311  17.2323  17.3363  17.4018
    17.6633  17.7062  17.7815  17.8022  18.1153  18.1605  18.2603  18.2611
    18.4029  18.4753  18.5312  18.6451  18.7549  18.9764  19.1031  19.5155

          k = 0.0833 0.4167 0.6686 ( 31851 PWs)   bands (ev):

   -12.0344 -12.0153 -12.0144 -12.0049 -11.9698 -11.9373 -11.9324 -11.9290
   -11.9050 -11.8981 -11.8911 -11.8864 -11.8632 -11.8506 -11.8104 -11.7569
   -11.6955 -11.6441 -11.6431 -11.6342 -11.6271 -11.6106 -11.5846 -11.5830
   -11.5811 -11.5759 -11.5391 -11.5187 -11.4302 -11.4151 -11.3878 -11.3803
   -11.3010 -11.2980 -11.2914 -11.2912 -11.2868 -11.2860 -11.2838 -11.2814
   -11.2726 -11.2724 -11.2670 -11.2654 -11.2650 -11.2644 -11.2630 -11.2607
   -11.2295 -11.2247 -11.2245 -11.2209 -11.2103 -11.2095 -11.2095 -11.2076
   -11.2059 -11.2054 -11.2040 -11.2031 -11.2012 -11.2005 -11.1987 -11.1960
   -11.1959 -11.1940 -11.1939 -11.1932 -11.1910 -11.1909 -11.1877 -11.1874
   -11.1867 -11.1866 -11.1856 -11.1847 -11.1845 -11.1838 -11.1808 -11.1800
    -9.4589  -9.3321  -9.3174  -9.2043  -8.7844  -8.6908  -8.6323  -8.5491
    -8.5479  -8.4676  -8.4063  -8.3421  -8.1856  -8.1015  -7.9272  -7.8363
    -7.4058  -7.3802  -7.2885  -7.2292  -7.2263  -7.2189  -7.2140  -7.1286
    -7.0927  -7.0917  -7.0682  -6.9689  -6.8330  -6.7995  -6.7908  -6.7870
     1.0208   1.0448   1.2911   1.2992   1.7990   1.8665   1.9677   2.0436
     2.0504   2.1165   2.2563   2.3440   3.1957   3.4649   3.4829   3.8365
     3.8690   4.0096   4.0503   4.1672   4.1973   4.2116   4.3217   4.3328
     4.3551   4.4456   4.5280   4.5847   4.5998   4.6047   4.7233   4.7966
     5.0772   5.2058   5.2253   5.2939   5.4214   5.4546   5.4950   5.4977
     5.5515   5.5516   5.5898   5.6235   5.7526   5.7962   5.8900   5.9325
     6.0247   6.1213   6.3508   6.5331   6.5386   6.6748   6.6775   6.7036
     6.7957   6.8695   6.9058   6.9119   6.9393   6.9474   6.9533   7.0572
     7.0729   7.1377   7.1393   7.2640   7.4173   7.4693   7.5194   7.5316
     7.5340   7.5712   7.6475   7.6655   7.7987   7.8410   7.8742   7.8838
     7.8978   7.9201   7.9388   7.9638   7.9893   8.0129   8.0277   8.0345
     8.0872   8.1057   8.1276   8.1333   8.2110   8.2296   8.3010   8.3597
    12.0704  12.4114  12.5894  12.8611  13.2357  13.2549  13.3596  13.4569
    13.4981  13.5812  13.6089  13.7616  14.5300  14.7096  14.7738  14.9122
    16.5146  16.5476  16.6281  16.6598  16.8862  16.9023  16.9171  16.9179
    16.9740  16.9823  17.0806  17.1295  17.1315  17.1593  17.1861  17.2020
    17.2103  17.2536  17.3564  17.4204  17.8025  17.8223  17.9968  18.0232
    18.1875  18.2426  18.3930  18.4528  18.7556  18.8975  19.1332  19.3303

          k = 0.2500 0.2500 0.0743 ( 31800 PWs)   bands (ev):

   -12.2106 -12.1825 -12.1825 -12.1225 -12.1194 -12.1194 -12.1159 -12.0675
   -12.0675 -12.0407 -12.0330 -12.0253 -11.9440 -11.8262 -11.8262 -11.6357
   -11.6146 -11.6091 -11.4800 -11.4780 -11.4780 -11.4602 -11.3779 -11.3769
   -11.3768 -11.3688 -11.3688 -11.3678 -11.3667 -11.3666 -11.3608 -11.3593
   -11.3571 -11.3559 -11.3492 -11.3492 -11.3455 -11.3372 -11.3372 -11.3067
   -11.2461 -11.2461 -11.2446 -11.2442 -11.2431 -11.2429 -11.2428 -11.2428
   -11.2416 -11.2246 -11.2246 -11.2146 -11.2043 -11.1995 -11.1993 -11.1993
   -11.1949 -11.1949 -11.1946 -11.1945 -11.1926 -11.1923 -11.1923 -11.1832
   -11.1549 -11.1538 -11.1537 -11.1501 -11.1498 -11.1497 -11.1495 -11.1483
   -11.1471 -11.1466 -11.1463 -11.1454 -11.1453 -11.1453 -11.1419 -11.1419
    -9.7818  -9.3937  -9.3937  -8.9345  -8.7307  -8.7307  -8.5332  -8.5332
    -8.4915  -8.3559  -8.3559  -8.3249  -8.2257  -8.1987  -8.1955  -8.1523
    -8.1308  -8.1175  -7.6039  -7.6039  -7.4857  -6.9736  -6.9736  -6.8709
    -6.8181  -6.7471  -6.7298  -6.7298  -6.7083  -6.6362  -6.6311  -6.6311
     0.9188   0.9788   1.1813   1.4247   1.4618   1.4618   1.7326   1.7326
     1.8523   1.8523   1.8710   2.5172   3.1088   3.1088   3.3079   3.4636
     3.4637   3.9026   3.9026   3.9801   3.9880   4.0460   4.3765   4.4212
     4.4697   4.4697   4.4968   4.7626   4.8203   4.9149   4.9149   4.9342
     5.0143   5.1969   5.1969   5.3729   5.4951   5.5097   5.5097   5.6401
     5.9122   5.9122   5.9632   5.9640   6.1486   6.1972   6.2006   6.3801
     6.3801   6.4980   6.5024   6.5024   6.6917   6.9698   6.9792   6.9792
     6.9884   7.0206   7.0844   7.0844   7.2282   7.2801   7.2801   7.4258
     7.4314   7.4326   7.4365   7.4505   7.4834   7.4834   7.4958   7.5213
     7.5414   7.5448   7.5448   7.5903   7.5903   7.6393   7.7175   7.7507
     7.7507   7.7527   7.7589   7.7589   7.8828   7.9375   7.9450   7.9471
     7.9471   8.0307   8.0376   8.0676   8.0676   8.2516   8.2516   8.6251
    10.2438  11.8550  11.8550  12.5763  13.1637  13.3183  13.3359  13.3359
    13.4484  14.0823  14.0945  14.0945  14.1443  14.4686  14.4686  14.5624
    14.9158  14.9319  15.3470  15.3470  15.4440  15.4440  15.7004  15.7229
    16.2811  16.2811  16.8558  16.9614  17.1409  17.1409  17.5350  18.2070
    18.7807  18.8055  18.9206  18.9221  18.9423  18.9423  19.0676  19.0676
    19.0770  19.1077  19.1961  19.2134  19.2134  19.2406  19.3237  19.3491

          k = 0.2500 0.2500 0.2229 ( 31827 PWs)   bands (ev):

   -12.1902 -12.1602 -12.1602 -12.0995 -12.0961 -12.0961 -12.0941 -12.0506
   -12.0505 -12.0205 -12.0065 -11.9990 -11.9254 -11.8136 -11.8136 -11.6529
   -11.6314 -11.6171 -11.4971 -11.4971 -11.4909 -11.4336 -11.4173 -11.4173
   -11.4117 -11.4098 -11.4097 -11.4093 -11.4022 -11.4003 -11.3677 -11.3677
   -11.3632 -11.3499 -11.3439 -11.3439 -11.3348 -11.3179 -11.3179 -11.2948
   -11.2447 -11.2447 -11.2431 -11.2411 -11.2396 -11.2393 -11.2393 -11.2390
   -11.2378 -11.2236 -11.2236 -11.2138 -11.2045 -11.2036 -11.1991 -11.1991
   -11.1973 -11.1973 -11.1958 -11.1928 -11.1914 -11.1913 -11.1908 -11.1835
   -11.1738 -11.1644 -11.1628 -11.1627 -11.1611 -11.1577 -11.1577 -11.1555
   -11.1555 -11.1555 -11.1547 -11.1547 -11.1547 -11.1547 -11.1524 -11.1520
    -9.7535  -9.3582  -9.3582  -8.8962  -8.7281  -8.6835  -8.6835  -8.6320
    -8.6320  -8.3631  -8.3012  -8.3012  -8.2156  -8.1393  -8.1240  -8.0762
    -8.0474  -7.9799  -7.5618  -7.5618  -7.4580  -6.9626  -6.9626  -6.9332
    -6.8791  -6.7890  -6.7720  -6.7720  -6.7447  -6.6563  -6.6558  -6.6558
     0.9177   1.0617   1.2490   1.2712   1.4720   1.4720   1.7321   1.7321
     1.9595   1.9595   2.1816   2.4672   3.0969   3.0969   3.1770   3.4888
     3.4888   3.9668   3.9668   4.0059   4.0880   4.0943   4.3085   4.5567
     4.5567   4.5613   4.6017   4.7380   4.8669   4.9039   4.9039   4.9451
     4.9451   4.9791   5.0506   5.2442   5.4108   5.4642   5.4642   5.6690
     5.7631   5.7631   5.9782   6.0508   6.0622   6.1133   6.1653   6.1901
     6.4702   6.4702   6.5046   6.6508   6.6508   6.7713   6.9412   6.9513
     6.9723   6.9723   7.0342   7.0342   7.0361   7.2600   7.2866   7.2866
     7.3515   7.3712   7.3712   7.3979   7.4335   7.4905   7.4905   7.5102
     7.5102   7.6005   7.6260   7.6327   7.6425   7.7009   7.7178   7.7310
     7.7355   7.7355   7.8399   7.8399   7.9167   7.9474   7.9647   7.9647
     7.9736   8.0536   8.0646   8.0646   8.0756   8.2640   8.2640   8.6107
    10.4775  11.9823  11.9823  12.6533  13.2354  13.3166  13.4452  13.4452
    13.4855  13.8427  13.9800  13.9800  14.2050  14.4750  14.4750  14.7496
    15.1059  15.1333  15.5300  15.5300  15.6227  15.6227  15.8602  15.8754
    16.3767  16.3767  16.9055  16.9322  17.1771  17.1771  17.5518  18.1846
    18.3578  18.5172  18.6707  18.6707  18.7592  18.7933  18.8152  18.8152
    19.0028  19.0893  19.0893  19.1557  19.2167  19.2167  19.2937  19.3880

          k = 0.2500 0.2500 0.3715 ( 31842 PWs)   bands (ev):

   -12.1511 -12.1182 -12.1182 -12.0557 -12.0544 -12.0517 -12.0516 -12.0213
   -12.0213 -11.9832 -11.9548 -11.9475 -11.8926 -11.7997 -11.7997 -11.7126
   -11.6644 -11.5987 -11.5310 -11.5310 -11.5127 -11.4781 -11.4753 -11.4731
   -11.4726 -11.4726 -11.4651 -11.4651 -11.4628 -11.4044 -11.3747 -11.3746
   -11.3496 -11.3371 -11.3328 -11.3328 -11.3228 -11.3048 -11.3047 -11.2894
   -11.2433 -11.2433 -11.2403 -11.2362 -11.2354 -11.2353 -11.2353 -11.2315
   -11.2309 -11.2218 -11.2218 -11.2123 -11.2096 -11.2026 -11.2017 -11.2017
   -11.1992 -11.1984 -11.1984 -11.1978 -11.1936 -11.1923 -11.1923 -11.1920
   -11.1876 -11.1859 -11.1858 -11.1858 -11.1838 -11.1802 -11.1800 -11.1800
   -11.1651 -11.1651 -11.1642 -11.1632 -11.1628 -11.1627 -11.1626 -11.1624
    -9.6975  -9.2931  -9.2931  -8.9614  -8.8290  -8.7526  -8.7526  -8.6002
    -8.6002  -8.4233  -8.2682  -8.2682  -8.1973  -8.1280  -7.9915  -7.9770
    -7.9174  -7.7909  -7.4811  -7.4811  -7.4022  -7.0516  -6.9950  -6.9404
    -6.9404  -6.8677  -6.8528  -6.8528  -6.8034  -6.7000  -6.7000  -6.6958
     0.9163   1.1033   1.2196   1.4452   1.5051   1.5051   1.7272   1.7272
     2.1465   2.1465   2.3588   2.5883   2.9427   3.0606   3.0606   3.5456
     3.5456   3.9752   4.0628   4.0628   4.1933   4.2941   4.2988   4.6280
     4.6280   4.6998   4.7332   4.7333   4.7922   4.8020   4.9575   4.9911
     4.9945   4.9945   5.0303   5.0303   5.0649   5.1054   5.4692   5.5107
     5.6937   5.8870   5.9448   5.9448   5.9672   5.9953   6.1673   6.1908
     6.2176   6.3889   6.3889   6.5728   6.5728   6.6514   6.7768   6.8542
     6.8598   6.9569   6.9569   6.9642   7.1540   7.1735   7.1735   7.2391
     7.2391   7.2452   7.2452   7.3257   7.4224   7.4224   7.4534   7.4660
     7.4660   7.6719   7.6952   7.7334   7.7334   7.7334   7.7520   7.7601
     7.8028   7.8641   7.8766   7.8766   7.9371   7.9536   8.0143   8.0143
     8.0376   8.0449   8.0449   8.0556   8.1337   8.2693   8.2693   8.5699
    10.8871  12.2152  12.2152  12.7881  13.3088  13.3546  13.4522  13.5421
    13.6377  13.6377  13.7780  13.7780  14.4116  14.4619  14.4619  14.9009
    15.4597  15.5031  15.8695  15.8695  15.9488  15.9488  16.1534  16.1548
    16.5518  16.5518  16.9129  16.9965  17.2350  17.2350  17.5519  17.9475
    17.9797  18.1250  18.2749  18.2749  18.4219  18.4219  18.4824  18.5359
    18.8437  18.8437  19.0044  19.0044  19.0261  19.0429  19.2295  19.2894

          k = 0.2500 0.2500 0.5201 ( 31876 PWs)   bands (ev):

   -12.0982 -12.0631 -12.0631 -12.0107 -11.9973 -11.9911 -11.9910 -11.9908
   -11.9908 -11.9379 -11.8805 -11.8736 -11.8547 -11.8087 -11.8087 -11.7648
   -11.7112 -11.6368 -11.5764 -11.5724 -11.5707 -11.5707 -11.5434 -11.5429
   -11.5429 -11.5404 -11.4883 -11.4883 -11.4577 -11.3936 -11.3936 -11.3835
   -11.3290 -11.3182 -11.3164 -11.3164 -11.3067 -11.2937 -11.2937 -11.2881
   -11.2511 -11.2511 -11.2447 -11.2410 -11.2410 -11.2400 -11.2362 -11.2252
   -11.2251 -11.2243 -11.2213 -11.2196 -11.2196 -11.2128 -11.2128 -11.2116
   -11.2105 -11.2052 -11.2048 -11.2033 -11.2033 -11.2013 -11.1999 -11.1982
   -11.1982 -11.1952 -11.1952 -11.1944 -11.1881 -11.1881 -11.1855 -11.1847
   -11.1760 -11.1751 -11.1751 -11.1750 -11.1742 -11.1742 -11.1725 -11.1725
    -9.6131  -9.2068  -9.2068  -9.1719  -8.8759  -8.8759  -8.7463  -8.4989
    -8.4989  -8.4953  -8.2739  -8.2739  -8.1746  -8.1260  -7.8522  -7.8150
    -7.7442  -7.6720  -7.3692  -7.3692  -7.3191  -7.2148  -7.1548  -6.9736
    -6.9649  -6.9649  -6.9074  -6.9074  -6.8533  -6.7550  -6.7550  -6.7515
     0.9173   1.0067   1.4374   1.5602   1.5602   1.6908   1.7110   1.7110
     2.1846   2.3802   2.3802   2.6434   2.9779   2.9779   3.0509   3.6532
     3.6532   3.9852   4.0521   4.1484   4.1484   4.3964   4.3964   4.5608
     4.5608   4.5670   4.5853   4.6801   4.7974   4.8924   4.9934   4.9934
     5.0649   5.0742   5.0866   5.1775   5.2056   5.2056   5.2154   5.5415
     5.6057   5.6985   5.7890   5.8209   5.9116   5.9116   5.9653   6.0716
     6.1317   6.1712   6.1712   6.4485   6.4893   6.4893   6.6757   6.7057
     6.7768   6.8101   6.9001   6.9001   7.0074   7.1562   7.1562   7.1809
     7.1809   7.2239   7.3853   7.3853   7.3876   7.3876   7.4344   7.4344
     7.4850   7.6224   7.7466   7.7466   7.7549   7.7728   7.8271   7.8512
     7.8704   7.8704   7.8906   7.9483   7.9567   8.0063   8.0063   8.0350
     8.0574   8.0883   8.0883   8.1056   8.1726   8.2540   8.2540   8.4934
    11.3972  12.5193  12.5193  12.9484  12.9969  13.2798  13.4812  13.5112
    13.5112  13.5936  13.8710  13.8710  14.4042  14.4042  14.6437  14.9775
    15.9305  15.9902  16.3211  16.3211  16.3677  16.3677  16.5164  16.5320
    16.7868  16.7868  16.9395  17.1050  17.2647  17.2647  17.4678  17.5769
    17.5858  17.6471  17.8566  17.8566  17.9401  17.9401  18.1767  18.2003
    18.5795  18.5795  18.7560  18.7560  18.9292  19.1313  19.2310  19.2338

          k = 0.2500 0.2500 0.6686 ( 31863 PWs)   bands (ev):

   -12.0403 -12.0089 -12.0089 -11.9997 -11.9807 -11.9807 -11.9387 -11.9215
   -11.9215 -11.9110 -11.8547 -11.8547 -11.8168 -11.7878 -11.7819 -11.7710
   -11.7662 -11.7138 -11.6834 -11.6784 -11.5996 -11.5996 -11.5930 -11.5930
   -11.5800 -11.5738 -11.4695 -11.4695 -11.4289 -11.4289 -11.4121 -11.3813
   -11.3032 -11.2954 -11.2954 -11.2935 -11.2850 -11.2842 -11.2810 -11.2810
   -11.2738 -11.2720 -11.2720 -11.2651 -11.2629 -11.2629 -11.2629 -11.2576
   -11.2313 -11.2262 -11.2172 -11.2172 -11.2157 -11.2157 -11.2113 -11.2088
   -11.2032 -11.2026 -11.2026 -11.2010 -11.2007 -11.2004 -11.1991 -11.1991
   -11.1991 -11.1941 -11.1936 -11.1936 -11.1910 -11.1889 -11.1875 -11.1870
   -11.1870 -11.1869 -11.1856 -11.1856 -11.1837 -11.1817 -11.1816 -11.1816
    -9.4987  -9.3519  -9.1060  -9.1060  -8.9948  -8.9948  -8.6593  -8.5746
    -8.3994  -8.3994  -8.3198  -8.3198  -8.1520  -8.1346  -7.7307  -7.6550
    -7.6141  -7.5468  -7.4079  -7.3444  -7.2369  -7.2369  -7.2132  -7.0975
    -7.0975  -7.0936  -6.8640  -6.8640  -6.8574  -6.8132  -6.8119  -6.8119
     0.9260   0.9517   1.6232   1.6232   1.6766   1.6766   1.6923   1.9532
     1.9888   2.3153   2.6220   2.6220   2.8306   2.8306   3.5251   3.8404
     3.8404   3.8704   4.0773   4.1211   4.1211   4.2159   4.2159   4.3087
     4.3087   4.3793   4.6392   4.6829   4.9258   4.9451   5.2147   5.2408
     5.2514   5.2637   5.3092   5.3136   5.3136   5.3221   5.4787   5.4787
     5.5360   5.5785   5.6119   5.6479   5.6479   5.7156   5.7886   5.8194
     5.8194   6.0476   6.0591   6.0869   6.5469   6.5880   6.6175   6.6175
     6.7751   6.7751   6.8284   6.9002   6.9439   7.0957   7.1410   7.1410
     7.1525   7.1525   7.3702   7.3702   7.3826   7.3826   7.5258   7.5726
     7.5791   7.5791   7.7004   7.7004   7.7825   7.7857   7.8911   7.8969
     7.8969   7.9156   7.9305   7.9534   7.9534   7.9548   7.9573   7.9927
     8.1566   8.1590   8.1590   8.1805   8.2160   8.2160   8.2325   8.3799
    11.9454  12.4884  12.8580  12.8580  13.0987  13.1976  13.1976  13.2124
    13.5750  13.6118  14.0993  14.0993  14.2839  14.2840  14.8417  14.9597
    16.4611  16.5413  16.7852  16.7852  16.8479  16.8480  16.9024  16.9172
    16.9321  17.0271  17.0271  17.1077  17.1406  17.1816  17.1839  17.1839
    17.2435  17.3028  17.4205  17.4205  17.4701  17.4701  17.9249  17.9386
    18.4496  18.4496  18.5378  18.5378  18.9308  19.0173  19.2397  19.3331

          k = 0.2500 0.4167 0.0743 ( 31830 PWs)   bands (ev):

   -12.1780 -12.1759 -12.1739 -12.1550 -12.1508 -12.1298 -12.0807 -12.0784
   -12.0642 -12.0561 -12.0467 -12.0415 -11.9008 -11.8594 -11.7467 -11.6808
   -11.5931 -11.5882 -11.5407 -11.5382 -11.4218 -11.4080 -11.3812 -11.3782
   -11.3779 -11.3745 -11.3744 -11.3711 -11.3657 -11.3645 -11.3625 -11.3609
   -11.3555 -11.3549 -11.3526 -11.3521 -11.3419 -11.3391 -11.3308 -11.3201
   -11.2465 -11.2462 -11.2456 -11.2449 -11.2438 -11.2438 -11.2433 -11.2428
   -11.2397 -11.2329 -11.2222 -11.2185 -11.2020 -11.2003 -11.1981 -11.1967
   -11.1951 -11.1949 -11.1934 -11.1926 -11.1926 -11.1921 -11.1921 -11.1871
   -11.1534 -11.1532 -11.1522 -11.1521 -11.1515 -11.1485 -11.1480 -11.1477
   -11.1471 -11.1467 -11.1461 -11.1459 -11.1451 -11.1448 -11.1431 -11.1430
    -9.6932  -9.5626  -9.2858  -9.1303  -8.6037  -8.5419  -8.5240  -8.4973
    -8.4928  -8.4263  -8.4188  -8.2872  -8.2828  -8.2685  -8.2276  -8.1913
    -7.9920  -7.9701  -7.8130  -7.7611  -7.2710  -7.0961  -6.8449  -6.8164
    -6.8105  -6.7914  -6.7772  -6.7038  -6.6887  -6.6655  -6.6478  -6.6379
     1.0737   1.1056   1.2411   1.3799   1.3944   1.3946   1.4034   1.6427
     1.9277   1.9378   1.9400   2.1979   3.2204   3.3169   3.5094   3.6006
     3.7155   3.7456   4.0111   4.0308   4.0363   4.0494   4.1091   4.2926
     4.3306   4.3560   4.4285   4.4408   4.8765   4.9833   5.0113   5.1083
     5.1241   5.1321   5.2324   5.2937   5.3406   5.5025   5.5535   5.6921
     5.7121   5.8475   6.0899   6.0937   6.1472   6.2410   6.2795   6.3495
     6.3622   6.5428   6.5869   6.6070   6.7201   6.7315   6.8593   7.0309
     7.0517   7.0674   7.1325   7.1337   7.2762   7.3188   7.3249   7.4303
     7.4418   7.4486   7.4505   7.4526   7.4627   7.5173   7.5192   7.5361
     7.5373   7.5469   7.5564   7.5717   7.5869   7.6354   7.6412   7.6612
     7.7032   7.7358   7.7379   7.8153   7.8204   7.8286   7.8976   7.8988
     7.9669   8.0148   8.0359   8.0469   8.1118   8.1917   8.3797   8.5161
    10.7238  11.2799  12.0596  12.3126  13.2544  13.3063  13.5098  13.6668
    13.7481  13.7814  13.9092  14.0731  14.0961  14.1252  14.5828  14.6059
    15.0304  15.1064  15.1823  15.2929  15.4679  15.5330  15.5966  15.6359
    16.3195  16.4168  16.5667  16.6301  17.4813  17.5903  17.6233  18.0220
    18.8364  18.8483  18.8598  18.8645  18.8661  18.9158  18.9478  18.9582
    19.1257  19.1778  19.2223  19.2341  19.2568  19.3521  19.3772  19.3799

          k = 0.2500 0.4167 0.2229 ( 31822 PWs)   bands (ev):

   -12.1583 -12.1533 -12.1520 -12.1323 -12.1290 -12.1113 -12.0566 -12.0543
   -12.0461 -12.0368 -12.0212 -12.0161 -11.8840 -11.8448 -11.7337 -11.6655
   -11.6207 -11.6097 -11.5633 -11.5574 -11.4304 -11.4173 -11.4155 -11.4155
   -11.4126 -11.4060 -11.4058 -11.4031 -11.4021 -11.3938 -11.3869 -11.3688
   -11.3589 -11.3521 -11.3501 -11.3476 -11.3280 -11.3220 -11.3097 -11.3018
   -11.2444 -11.2442 -11.2427 -11.2422 -11.2403 -11.2400 -11.2390 -11.2387
   -11.2383 -11.2316 -11.2212 -11.2177 -11.2024 -11.2014 -11.1999 -11.1999
   -11.1969 -11.1965 -11.1924 -11.1919 -11.1915 -11.1907 -11.1905 -11.1870
   -11.1705 -11.1666 -11.1637 -11.1630 -11.1591 -11.1574 -11.1572 -11.1572
   -11.1563 -11.1562 -11.1546 -11.1546 -11.1533 -11.1533 -11.1526 -11.1524
    -9.6633  -9.5302  -9.2493  -9.0927  -8.7188  -8.6896  -8.5686  -8.5588
    -8.4750  -8.4456  -8.3859  -8.2309  -8.2308  -8.1724  -8.1660  -8.0603
    -7.9337  -7.9256  -7.7622  -7.7185  -7.2494  -7.0803  -6.9037  -6.8685
    -6.8421  -6.8280  -6.8165  -6.7225  -6.7147  -6.6942  -6.6756  -6.6626
     1.1052   1.1426   1.2876   1.2919   1.3645   1.3799   1.4813   1.7308
     1.9171   2.0973   2.1669   2.1713   3.1666   3.2132   3.5230   3.5758
     3.7070   3.7733   3.9994   4.0930   4.1321   4.1384   4.2003   4.3681
     4.4094   4.4104   4.5247   4.5426   4.8150   4.8184   4.9430   4.9677
     5.1444   5.2175   5.2347   5.3483   5.3532   5.4214   5.4888   5.6193
     5.6538   5.6704   5.6912   5.8997   6.0947   6.2642   6.2895   6.3478
     6.4588   6.4778   6.5279   6.5402   6.6781   6.8273   6.8809   6.9167
     6.9719   7.0080   7.1475   7.1478   7.2005   7.2559   7.2724   7.3130
     7.3198   7.3491   7.3573   7.3773   7.4261   7.4776   7.4914   7.5475
     7.5475   7.5496   7.5826   7.6243   7.6368   7.6456   7.6784   7.7087
     7.7216   7.7623   7.8028   7.8681   7.8762   7.8801   7.9158   7.9405
     7.9811   8.0252   8.0484   8.0511   8.1566   8.2234   8.3919   8.5170
    10.9096  11.4302  12.1690  12.4040  13.3375  13.4034  13.4814  13.7184
    13.7758  13.7810  13.8595  13.9002  14.0295  14.1366  14.6336  14.7214
    15.2204  15.2946  15.3689  15.4741  15.6435  15.7041  15.7646  15.7966
    16.4026  16.4936  16.6065  16.6901  17.4952  17.5966  17.6307  17.9928
    18.4671  18.5767  18.5784  18.6212  18.6439  18.6973  18.7202  18.7520
    19.0782  19.1013  19.1058  19.1351  19.2785  19.3232  19.3463  19.4846

          k = 0.2500 0.4167 0.3715 ( 31838 PWs)   bands (ev):

   -12.1215 -12.1110 -12.1107 -12.0894 -12.0891 -12.0778 -12.0140 -12.0108
   -12.0082 -12.0017 -11.9720 -11.9670 -11.8568 -11.8244 -11.7223 -11.6702
   -11.6527 -11.6416 -11.6040 -11.5884 -11.4770 -11.4752 -11.4750 -11.4744
   -11.4700 -11.4672 -11.4630 -11.4618 -11.4489 -11.4006 -11.3775 -11.3647
   -11.3463 -11.3406 -11.3376 -11.3359 -11.3157 -11.3093 -11.2970 -11.2916
   -11.2423 -11.2418 -11.2393 -11.2392 -11.2356 -11.2347 -11.2331 -11.2330
   -11.2320 -11.2293 -11.2194 -11.2161 -11.2073 -11.2048 -11.2005 -11.2003
   -11.1992 -11.1990 -11.1951 -11.1929 -11.1925 -11.1922 -11.1910 -11.1905
   -11.1891 -11.1882 -11.1879 -11.1870 -11.1833 -11.1812 -11.1799 -11.1799
   -11.1653 -11.1649 -11.1649 -11.1640 -11.1627 -11.1624 -11.1622 -11.1620
    -9.6055  -9.4695  -9.1831  -9.0255  -8.9232  -8.8553  -8.6720  -8.5580
    -8.4810  -8.3544  -8.3207  -8.2030  -8.1437  -8.1314  -8.0841  -7.9173
    -7.8345  -7.8231  -7.6656  -7.6357  -7.2060  -7.0485  -7.0150  -6.9786
    -6.9380  -6.9244  -6.8161  -6.7857  -6.7401  -6.7356  -6.7272  -6.7037
     1.1041   1.1980   1.2730   1.3340   1.3768   1.3778   1.6486   1.8902
     1.8969   2.1101   2.3507   2.5020   3.0184   3.0505   3.5104   3.5662
     3.7164   3.8228   3.8933   4.1955   4.3007   4.3417   4.3444   4.4575
     4.5787   4.6088   4.6517   4.7150   4.7405   4.7872   4.7901   4.9691
     4.9951   4.9952   5.1831   5.1878   5.2044   5.3406   5.3745   5.3939
     5.5810   5.6756   5.6922   5.8183   6.0723   6.1733   6.2035   6.2072
     6.2830   6.3639   6.4618   6.4886   6.6033   6.6931   6.7641   6.7690
     6.8704   6.9948   7.0158   7.0505   7.1129   7.1135   7.1348   7.2645
     7.2856   7.2951   7.3413   7.3690   7.3742   7.4396   7.5017   7.5306
     7.5511   7.6001   7.6267   7.6355   7.6510   7.6992   7.7089   7.7173
     7.8233   7.8835   7.8849   7.9068   7.9082   7.9698   7.9886   8.0070
     8.0234   8.0258   8.0395   8.0465   8.2078   8.2538   8.3931   8.4993
    11.2456  11.7055  12.3687  12.5685  13.4214  13.4783  13.5161  13.5716
    13.5938  13.6223  13.8159  13.9791  14.1472  14.2349  14.6726  14.8200
    15.5713  15.6416  15.7151  15.8052  15.9682  16.0182  16.0731  16.0933
    16.5539  16.6400  16.6888  16.8055  17.5003  17.5716  17.6134  17.8562
    18.0436  18.1545  18.1897  18.2538  18.2982  18.3149  18.4088  18.4324
    18.8926  18.9490  18.9715  19.0310  19.1032  19.2107  19.3585  19.4445

          k = 0.2500 0.4167 0.5201 ( 31842 PWs)   bands (ev):

   -12.0736 -12.0591 -12.0539 -12.0409 -12.0375 -12.0319 -11.9789 -11.9610
   -11.9492 -11.9452 -11.9042 -11.8988 -11.8325 -11.8173 -11.7434 -11.7169
   -11.6835 -11.6829 -11.6460 -11.6257 -11.5710 -11.5684 -11.5579 -11.5577
   -11.5201 -11.5017 -11.4777 -11.4729 -11.4624 -11.4259 -11.3705 -11.3692
   -11.3268 -11.3224 -11.3191 -11.3184 -11.3012 -11.2965 -11.2882 -11.2863
   -11.2507 -11.2487 -11.2480 -11.2448 -11.2359 -11.2354 -11.2320 -11.2299
   -11.2297 -11.2263 -11.2215 -11.2181 -11.2173 -11.2171 -11.2146 -11.2141
   -11.2083 -11.2049 -11.2032 -11.2027 -11.2014 -11.1996 -11.1992 -11.1987
   -11.1984 -11.1969 -11.1923 -11.1922 -11.1900 -11.1877 -11.1872 -11.1862
   -11.1758 -11.1754 -11.1753 -11.1749 -11.1745 -11.1736 -11.1730 -11.1722
    -9.5217  -9.3851  -9.1115  -9.0967  -9.0136  -8.9400  -8.7824  -8.6513
    -8.3892  -8.2518  -8.2445  -8.2040  -8.1389  -8.0469  -8.0117  -7.8360
    -7.6983  -7.6714  -7.5328  -7.5178  -7.1672  -7.1416  -7.1296  -7.0685
    -7.0571  -7.0012  -6.8703  -6.8131  -6.7948  -6.7819  -6.7630  -6.7479
     1.1023   1.1393   1.3278   1.3707   1.4501   1.4976   1.8369   1.8828
     2.0025   2.1218   2.6511   2.7581   2.8696   2.8869   3.3862   3.6690
     3.7390   3.7791   3.9039   4.2519   4.4710   4.4867   4.5214   4.5897
     4.6157   4.6857   4.6964   4.7094   4.7160   4.7335   4.8123   4.8376
     4.8967   4.9894   5.0095   5.0235   5.2414   5.3098   5.4290   5.4896
     5.5116   5.6546   5.7922   5.7954   5.8729   5.9616   6.0136   6.0451
     6.0575   6.1984   6.3560   6.3680   6.3820   6.4261   6.4948   6.6689
     6.8020   6.8670   6.9749   7.0393   7.0459   7.0612   7.1930   7.2145
     7.2510   7.2671   7.3106   7.3410   7.3438   7.4420   7.5200   7.5209
     7.5433   7.6077   7.6552   7.6623   7.6680   7.7729   7.7731   7.8066
     7.8829   7.8979   7.9020   7.9332   7.9865   8.0057   8.0082   8.0234
     8.0827   8.0988   8.1030   8.1129   8.2336   8.2585   8.3664   8.4481
    11.6795  12.0666  12.6268  12.7747  13.1050  13.2764  13.3216  13.4108
    13.6346  13.7678  13.8442  14.1340  14.2123  14.4702  14.6638  14.8578
    16.0344  16.0997  16.1769  16.2331  16.3943  16.4292  16.4665  16.4895
    16.7567  16.8151  16.8450  16.9655  17.4368  17.4404  17.5055  17.5543
    17.6529  17.7087  17.7393  17.8084  17.8583  17.9574  17.9683  18.0440
    18.6888  18.8376  18.8451  18.8928  19.0537  19.0964  19.1818  19.4516

          k = 0.2500 0.4167 0.6686 ( 31829 PWs)   bands (ev):

   -12.0277 -12.0151 -12.0110 -12.0080 -11.9961 -11.9729 -11.9649 -11.9414
   -11.8851 -11.8736 -11.8387 -11.8366 -11.8229 -11.8211 -11.8024 -11.7512
   -11.7253 -11.7115 -11.6652 -11.6647 -11.6633 -11.6502 -11.6320 -11.6281
   -11.5345 -11.5119 -11.4962 -11.4622 -11.4397 -11.4206 -11.3963 -11.3812
   -11.3022 -11.2994 -11.2960 -11.2952 -11.2823 -11.2808 -11.2797 -11.2785
   -11.2748 -11.2741 -11.2706 -11.2680 -11.2611 -11.2610 -11.2594 -11.2575
   -11.2278 -11.2238 -11.2230 -11.2202 -11.2150 -11.2148 -11.2134 -11.2123
   -11.2027 -11.2024 -11.2022 -11.2014 -11.1995 -11.1993 -11.1975 -11.1972
   -11.1956 -11.1952 -11.1948 -11.1923 -11.1917 -11.1891 -11.1877 -11.1866
   -11.1865 -11.1864 -11.1859 -11.1858 -11.1847 -11.1837 -11.1817 -11.1814
    -9.4120  -9.2803  -9.2754  -9.1562  -8.9982  -8.8924  -8.8456  -8.7483
    -8.3032  -8.2383  -8.1944  -8.1557  -8.1408  -8.0684  -7.9011  -7.8330
    -7.5285  -7.4935  -7.3768  -7.3745  -7.3446  -7.3069  -7.2194  -7.2129
    -7.0591  -6.9654  -6.9400  -6.8688  -6.8036  -6.7994  -6.7889  -6.7827
     1.1025   1.1112   1.3395   1.3569   1.6299   1.6508   1.7490   1.8447
     2.1628   2.3786   2.4634   2.6374   2.9490   3.1987   3.2594   3.5404
     3.8726   3.9518   4.0451   4.1994   4.2735   4.2990   4.3232   4.4608
     4.5308   4.5582   4.6084   4.6580   4.8918   4.9019   4.9082   5.0272
     5.0366   5.1629   5.3207   5.3626   5.3855   5.4037   5.4303   5.5121
     5.5452   5.5570   5.5751   5.6247   5.6490   5.6915   5.7043   5.8428
     5.9488   6.0819   6.1903   6.2527   6.2709   6.3607   6.4199   6.5473
     6.7295   6.7704   6.9409   6.9739   7.0643   7.1145   7.2215   7.2303
     7.2451   7.2638   7.2814   7.3577   7.3763   7.4350   7.4402   7.5189
     7.5300   7.5783   7.6639   7.6690   7.7435   7.8075   7.8506   7.8624
     7.9103   7.9296   7.9372   7.9568   7.9602   7.9752   7.9754   7.9815
     8.1763   8.1826   8.2182   8.2248   8.2316   8.2359   8.3075   8.3595
    12.1600  12.4721  12.6455  12.8852  12.9071  12.9872  13.1756  13.1768
    13.7624  13.8331  13.9459  14.0715  14.4283  14.5849  14.6778  14.8131
    16.5458  16.6202  16.6827  16.7116  16.8369  16.8797  16.8966  16.9184
    16.9232  16.9639  17.0711  17.1109  17.1559  17.1899  17.2142  17.2273
    17.2530  17.2719  17.3298  17.3730  17.5008  17.5026  17.6589  17.6628
    18.6167  18.7064  18.8136  18.8696  18.9014  19.0016  19.2443  19.4131

          k = 0.4167 0.4167 0.0743 ( 31801 PWs)   bands (ev):

   -12.1824 -12.1824 -12.1760 -12.1737 -12.1527 -12.1145 -12.1145 -12.0903
   -12.0442 -12.0441 -12.0306 -12.0277 -11.8415 -11.7877 -11.7877 -11.7258
   -11.6124 -11.6096 -11.5905 -11.5905 -11.3798 -11.3777 -11.3763 -11.3763
   -11.3740 -11.3723 -11.3631 -11.3630 -11.3622 -11.3622 -11.3604 -11.3599
   -11.3574 -11.3570 -11.3553 -11.3553 -11.3376 -11.3336 -11.3336 -11.3273
   -11.2467 -11.2467 -11.2465 -11.2461 -11.2441 -11.2439 -11.2439 -11.2436
   -11.2354 -11.2292 -11.2292 -11.2243 -11.1979 -11.1974 -11.1964 -11.1964
   -11.1958 -11.1945 -11.1945 -11.1925 -11.1921 -11.1920 -11.1918 -11.1900
   -11.1538 -11.1537 -11.1534 -11.1532 -11.1500 -11.1477 -11.1477 -11.1471
   -11.1464 -11.1464 -11.1461 -11.1458 -11.1437 -11.1436 -11.1430 -11.1430
[...]
     7.2451   7.2638   7.2814   7.3577   7.3764   7.4351   7.4402   7.5189
     7.5300   7.5783   7.6639   7.6690   7.7435   7.8075   7.8506   7.8624
     7.9103   7.9296   7.9372   7.9568   7.9603   7.9752   7.9753   7.9815
     8.1763   8.1826   8.2182   8.2248   8.2316   8.2359   8.3075   8.3595
    12.1600  12.4721  12.6455  12.8852  12.9071  12.9872  13.1756  13.1768
    13.7624  13.8331  13.9459  14.0715  14.4283  14.5849  14.6778  14.8131
    16.5458  16.6202  16.6827  16.7115  16.8369  16.8797  16.8966  16.9184
    16.9232  16.9639  17.0710  17.1109  17.1559  17.1899  17.2142  17.2273
    17.2530  17.2719  17.3298  17.3730  17.5008  17.5026  17.6589  17.6628
    18.6167  18.7064  18.8136  18.8696  18.9014  19.0016  19.2443  19.4131

          k =-0.4167 0.4167-0.0743 ( 31801 PWs)   bands (ev):

   -12.1824 -12.1824 -12.1760 -12.1737 -12.1527 -12.1145 -12.1145 -12.0903
   -12.0442 -12.0441 -12.0306 -12.0277 -11.8415 -11.7877 -11.7877 -11.7258
   -11.6124 -11.6096 -11.5905 -11.5905 -11.3798 -11.3777 -11.3763 -11.3763
   -11.3740 -11.3723 -11.3630 -11.3630 -11.3622 -11.3622 -11.3604 -11.3599
   -11.3574 -11.3570 -11.3553 -11.3553 -11.3376 -11.3336 -11.3336 -11.3273
   -11.2467 -11.2467 -11.2465 -11.2461 -11.2441 -11.2439 -11.2439 -11.2436
   -11.2354 -11.2292 -11.2292 -11.2243 -11.1979 -11.1974 -11.1964 -11.1964
   -11.1958 -11.1945 -11.1945 -11.1925 -11.1921 -11.1921 -11.1918 -11.1900
   -11.1538 -11.1538 -11.1534 -11.1532 -11.1500 -11.1477 -11.1477 -11.1471
   -11.1464 -11.1463 -11.1461 -11.1458 -11.1437 -11.1437 -11.1431 -11.1430
    -9.5996  -9.4622  -9.4622  -9.3162  -8.5430  -8.5342  -8.5342  -8.4916
    -8.3671  -8.3671  -8.2183  -8.2183  -8.2058  -8.2018  -8.1815  -8.1707
    -8.1678  -8.1422  -7.9739  -7.9739  -7.0744  -6.9201  -6.9201  -6.8542
    -6.8349  -6.8278  -6.8278  -6.7880  -6.6479  -6.6366  -6.6301  -6.6301
     1.1174   1.2323   1.2323   1.2876   1.2978   1.5762   1.5762   1.6174
     1.8329   1.8329   1.8550   1.9525   3.5515   3.5802   3.6235   3.6235
     3.6266   3.6266   3.9232   3.9242   4.1018   4.1319   4.1509   4.1509
     4.2505   4.2617   4.2617   4.3161   4.8414   4.8844   4.9247   4.9247
     5.1938   5.3257   5.3257   5.4198   5.5710   5.5710   5.7192   5.9222
     6.0110   6.0638   6.0638   6.1581   6.1766   6.1994   6.2339   6.3132
     6.3533   6.3533   6.4557   6.4557   6.4651   6.5433   6.5433   6.8414
     7.1039   7.1330   7.1330   7.1342   7.4120   7.4236   7.4354   7.4362
     7.4362   7.4789   7.4789   7.4818   7.5229   7.5229   7.5404   7.5494
     7.5495   7.5495   7.5707   7.5796   7.6042   7.6084   7.6409   7.6409
     7.7295   7.7367   7.7367   7.7400   7.7407   7.8311   7.8311   7.8555
     7.9745   8.0038   8.0038   8.0105   8.2106   8.3076   8.3076   8.4254
    11.1080  11.5717  11.5717  11.9316  13.4423  13.5742  13.5742  13.6400
    13.7687  13.8381  13.8381  13.9515  14.0468  14.3721  14.3721  14.5613
    15.1821  15.2317  15.3280  15.3280  15.3967  15.3967  15.4750  15.5246
    16.2663  16.2663  16.3005  16.4022  17.9536  17.9550  17.9550  18.4321
    18.4346  18.6804  18.7343  18.7343  18.7877  18.8171  18.8171  18.8285
    19.1679  19.2059  19.2060  19.2309  19.2901  19.4473  19.4907  19.5343

          k =-0.4167 0.4167-0.2229 ( 31848 PWs)   bands (ev):

   -12.1602 -12.1602 -12.1535 -12.1518 -12.1332 -12.0957 -12.0956 -12.0710
   -12.0188 -12.0187 -12.0042 -12.0015 -11.8262 -11.7739 -11.7738 -11.7117
   -11.6355 -11.6318 -11.6115 -11.6114 -11.4172 -11.4171 -11.4171 -11.4153
   -11.4027 -11.4026 -11.4016 -11.4010 -11.3851 -11.3675 -11.3640 -11.3640
   -11.3582 -11.3542 -11.3542 -11.3538 -11.3201 -11.3140 -11.3140 -11.3070
   -11.2444 -11.2444 -11.2440 -11.2434 -11.2404 -11.2402 -11.2402 -11.2400
   -11.2340 -11.2281 -11.2281 -11.2232 -11.2009 -11.1991 -11.1991 -11.1979
   -11.1975 -11.1943 -11.1943 -11.1911 -11.1907 -11.1906 -11.1903 -11.1899
   -11.1683 -11.1656 -11.1656 -11.1646 -11.1578 -11.1578 -11.1574 -11.1573
   -11.1572 -11.1557 -11.1556 -11.1548 -11.1525 -11.1524 -11.1523 -11.1521
    -9.5680  -9.4284  -9.4283  -9.2805  -8.6962  -8.6475  -8.6475  -8.5748
    -8.3200  -8.3200  -8.1811  -8.1379  -8.1378  -8.1313  -8.1284  -8.0997
    -8.0813  -8.0717  -7.9234  -7.9234  -7.0607  -6.9161  -6.9140  -6.9140
    -6.8963  -6.8862  -6.8862  -6.7912  -6.6758  -6.6617  -6.6550  -6.6550
     1.1660   1.2477   1.2477   1.2553   1.2959   1.5711   1.5711   1.7081
     1.8414   1.9406   1.9406   2.1047   3.4346   3.5441   3.5441   3.5885
     3.6391   3.6391   3.8271   3.9259   4.2128   4.2379   4.2593   4.2593
     4.3628   4.3629   4.3670   4.4216   4.8892   4.8910   4.8910   4.9315
     5.2288   5.4119   5.4119   5.4478   5.4977   5.5532   5.5532   5.6136
     5.6136   5.7403   5.7798   6.0147   6.0594   6.0844   6.1781   6.3049
     6.3049   6.3750   6.4000   6.4000   6.5829   6.7819   6.7819   6.9664
     6.9962   7.0827   7.0827   7.1897   7.2643   7.2664   7.2961   7.2961
     7.3174   7.3743   7.3743   7.3805   7.4835   7.4835   7.5059   7.5086
     7.5416   7.5416   7.5639   7.5784   7.6939   7.6939   7.7056   7.7185
     7.7398   7.8031   7.8194   7.8415   7.8415   7.8565   7.8565   7.9068
     7.9894   8.0173   8.0173   8.0272   8.2530   8.3369   8.3369   8.4423
    11.2624  11.6997  11.6997  12.0389  13.5353  13.5762  13.6792  13.6792
    13.7295  13.7295  13.7869  13.8831  14.0699  14.3919  14.3919  14.6092
    15.3643  15.4154  15.5078  15.5078  15.5719  15.5719  15.6499  15.6908
    16.3548  16.3548  16.3811  16.4765  17.9260  17.9260  17.9280  18.3138
    18.3407  18.4830  18.5278  18.5278  18.5411  18.5602  18.5735  18.5735
    19.1475  19.1475  19.1729  19.1853  19.2263  19.4017  19.4196  19.4196

          k =-0.4167 0.4167-0.3715 ( 31834 PWs)   bands (ev):

   -12.1182 -12.1182 -12.1109 -12.1106 -12.0973 -12.0612 -12.0612 -12.0359
   -11.9696 -11.9696 -11.9526 -11.9499 -11.8042 -11.7573 -11.7573 -11.6978
   -11.6798 -11.6682 -11.6490 -11.6489 -11.4773 -11.4763 -11.4762 -11.4762
   -11.4668 -11.4643 -11.4643 -11.4624 -11.3981 -11.3696 -11.3696 -11.3633
   -11.3454 -11.3420 -11.3419 -11.3410 -11.3074 -11.3008 -11.3008 -11.2946
   -11.2423 -11.2423 -11.2413 -11.2409 -11.2335 -11.2335 -11.2331 -11.2330
   -11.2316 -11.2260 -11.2260 -11.2213 -11.2047 -11.2026 -11.2026 -11.2007
   -11.1968 -11.1941 -11.1939 -11.1939 -11.1922 -11.1920 -11.1920 -11.1906
   -11.1897 -11.1894 -11.1893 -11.1885 -11.1817 -11.1807 -11.1806 -11.1802
   -11.1654 -11.1652 -11.1652 -11.1647 -11.1623 -11.1623 -11.1622 -11.1622
    -9.5083  -9.3657  -9.3657  -9.2156  -8.8727  -8.7892  -8.7892  -8.6883
    -8.2403  -8.2403  -8.1444  -8.0746  -8.0663  -8.0627  -8.0627  -7.9680
    -7.9652  -7.9409  -7.8241  -7.8241  -7.0337  -7.0328  -7.0130  -6.9968
    -6.9968  -6.9009  -6.9009  -6.7964  -6.7271  -6.7037  -6.6989  -6.6989
     1.2287   1.2585   1.2856   1.2856   1.2903   1.5572   1.5573   1.8084
     1.8804   2.1348   2.1348   2.3564   3.2281   3.3864   3.3864   3.6269
     3.6609   3.6843   3.6843   3.9440   4.4219   4.4416   4.4574   4.4574
     4.5605   4.5605   4.5800   4.6242   4.8788   4.8789   4.9826   5.0232
     5.0660   5.1349   5.1349   5.2332   5.3104   5.4854   5.5151   5.5152
     5.5238   5.5238   5.7743   5.8920   5.9259   6.0165   6.1018   6.1679
     6.1701   6.1701   6.3126   6.3126   6.4951   6.6159   6.6159   6.7206
     7.0450   7.0939   7.1291   7.1355   7.1355   7.2180   7.2672   7.2672
     7.2711   7.2712   7.2998   7.3810   7.4154   7.4372   7.4372   7.5053
     7.5193   7.5193   7.5489   7.6016   7.7238   7.7490   7.7490   7.7821
     7.8108   7.8709   7.8709   7.8753   7.9452   7.9855   7.9855   7.9945
     8.0133   8.0182   8.0182   8.0309   8.2968   8.3609   8.3609   8.4471
    11.5462  11.9356  11.9356  12.2354  13.4509  13.5113  13.5301  13.5301
    13.6933  13.8593  13.8593  14.0784  14.1035  14.4153  14.4153  14.6576
    15.7014  15.7542  15.8410  15.8410  15.8940  15.8940  15.9734  15.9970
    16.5167  16.5167  16.5270  16.6180  17.8257  17.8257  17.8340  18.0582
    18.0634  18.0946  18.1258  18.1258  18.1688  18.2556  18.2556  18.2895
    19.0467  19.0467  19.1065  19.2080  19.2414  19.3258  19.4457  19.4458

          k =-0.4167 0.4167-0.5201 ( 31822 PWs)   bands (ev):

   -12.0631 -12.0631 -12.0583 -12.0543 -12.0520 -12.0202 -12.0201 -11.9944
   -11.9018 -11.9018 -11.8783 -11.8758 -11.7921 -11.7617 -11.7617 -11.7308
   -11.7166 -11.7145 -11.6927 -11.6927 -11.5750 -11.5736 -11.5697 -11.5697
   -11.5001 -11.4838 -11.4838 -11.4702 -11.4224 -11.3860 -11.3860 -11.3680
   -11.3261 -11.3234 -11.3233 -11.3222 -11.2946 -11.2901 -11.2901 -11.2862
   -11.2506 -11.2506 -11.2502 -11.2484 -11.2305 -11.2305 -11.2283 -11.2259
   -11.2253 -11.2249 -11.2237 -11.2232 -11.2232 -11.2201 -11.2200 -11.2189
   -11.2068 -11.2045 -11.2045 -11.2029 -11.1992 -11.1987 -11.1980 -11.1980
   -11.1963 -11.1939 -11.1938 -11.1902 -11.1901 -11.1886 -11.1886 -11.1872
   -11.1757 -11.1755 -11.1755 -11.1746 -11.1740 -11.1736 -11.1735 -11.1735
    -9.4243  -9.2809  -9.2809  -9.1302  -9.0405  -8.9303  -8.9303  -8.8073
    -8.1507  -8.1507  -8.1006  -8.0431  -8.0231  -8.0231  -7.9879  -7.8943
    -7.7926  -7.7667  -7.6820  -7.6819  -7.1958  -7.1739  -7.1483  -7.1483
    -6.9901  -6.8794  -6.8794  -6.8006  -6.7938  -6.7522  -6.7522  -6.7485
     1.2244   1.2784   1.3455   1.3455   1.3836   1.5287   1.5287   1.7465
     2.1163   2.3849   2.3849   2.6569   2.9677   3.1730   3.1730   3.4545
     3.7316   3.7859   3.7859   4.0027   4.6676   4.6676   4.6739   4.7031
     4.7031   4.7065   4.7273   4.7477   4.8410   4.8410   4.8546   4.9073
     4.9168   4.9168   5.1174   5.1532   5.3234   5.4714   5.4722   5.4722
     5.6023   5.6023   5.6910   5.7340   5.8168   5.8533   5.9104   5.9192
     5.9192   6.0126   6.2178   6.2178   6.2356   6.3281   6.3281   6.3945
     6.8962   7.0102   7.0503   7.0503   7.1724   7.1724   7.1832   7.2573
     7.2969   7.3297   7.3490   7.4111   7.4112   7.4646   7.4646   7.4997
     7.4997   7.5473   7.6001   7.6583   7.6782   7.7714   7.7714   7.8241
     7.8808   7.8980   7.8980   7.9161   7.9883   8.0032   8.0032   8.0164
     8.1024   8.1161   8.1161   8.1271   8.3104   8.3538   8.3538   8.4176
    11.9189  12.2458  12.2458  12.4902  13.1614  13.2604  13.2604  13.2681
    13.8701  14.0658  14.0658  14.1244  14.3016  14.4167  14.4167  14.6718
    16.1477  16.2013  16.2845  16.2846  16.3151  16.3151  16.3986  16.4022
    16.7211  16.7355  16.7355  16.8175  17.5963  17.5964  17.6154  17.6575
    17.6794  17.6968  17.7139  17.7139  17.7734  17.8193  17.8193  17.8893
    19.0003  19.0003  19.0982  19.3079  19.3080  19.3083  19.3361  19.3784

          k =-0.4167 0.4167-0.6686 ( 31835 PWs)   bands (ev):

   -12.0150 -12.0142 -12.0109 -12.0109 -11.9975 -11.9933 -11.9933 -11.9711
   -11.8315 -11.8315 -11.7916 -11.7908 -11.7908 -11.7861 -11.7839 -11.7662
   -11.7656 -11.7555 -11.7153 -11.7152 -11.6819 -11.6801 -11.6638 -11.6637
   -11.4928 -11.4603 -11.4603 -11.4582 -11.4348 -11.4188 -11.4188 -11.3920
   -11.3019 -11.2997 -11.2997 -11.2983 -11.2786 -11.2771 -11.2771 -11.2766
   -11.2753 -11.2736 -11.2736 -11.2715 -11.2578 -11.2572 -11.2572 -11.2561
   -11.2246 -11.2220 -11.2202 -11.2202 -11.2188 -11.2188 -11.2168 -11.2167
   -11.2028 -11.2021 -11.2021 -11.2019 -11.1972 -11.1969 -11.1961 -11.1958
   -11.1958 -11.1958 -11.1958 -11.1939 -11.1897 -11.1876 -11.1875 -11.1871
   -11.1864 -11.1864 -11.1861 -11.1859 -11.1850 -11.1834 -11.1834 -11.1830
    -9.3181  -9.1901  -9.1786  -9.1786  -9.0613  -9.0613  -9.0313  -8.9229
    -8.0738  -8.0738  -8.0617  -8.0397  -8.0276  -8.0276  -7.9177  -7.8802
    -7.5928  -7.5682  -7.5096  -7.5096  -7.3878  -7.3646  -7.3252  -7.3252
    -6.9334  -6.8657  -6.8475  -6.8475  -6.8043  -6.8043  -6.7982  -6.7821
     1.2385   1.2597   1.4160   1.4160   1.4809   1.4809   1.5220   1.6493
     2.3916   2.6577   2.6577   2.6821   2.9256   2.9256   2.9570   3.2223
     3.9462   3.9763   3.9763   4.1318   4.2746   4.2746   4.2941   4.3548
     4.9027   4.9027   4.9499   4.9499   5.0292   5.0682   5.1271   5.1786
     5.1786   5.2451   5.2868   5.2910   5.2932   5.3198   5.4840   5.4925
     5.4925   5.5069   5.5133   5.5134   5.5397   5.6018   5.6404   5.6404
     5.8952   6.0121   6.0598   6.0858   6.1374   6.1375   6.1382   6.1382
     6.8664   6.9166   7.0476   7.0476   7.0957   7.0957   7.2028   7.2561
     7.2584   7.2947   7.4148   7.4148   7.4422   7.4422   7.4678   7.5603
     7.5826   7.5950   7.6375   7.6375   7.7335   7.7335   7.7697   7.8226
     7.9371   7.9371   7.9397   7.9487   7.9729   7.9751   7.9751   7.9855
     8.2215   8.2270   8.2270   8.2406   8.2848   8.3084   8.3084   8.3480
    12.3370  12.5925  12.5925  12.7616  12.7678  12.9403  12.9403  13.0353
    14.0172  14.1030  14.2473  14.2473  14.3670  14.3670  14.4968  14.6237
    16.6464  16.7047  16.7767  16.7767  16.7913  16.7913  16.8417  16.8823
    16.9325  16.9982  16.9983  17.0596  17.2135  17.2398  17.2398  17.2414
    17.2679  17.3068  17.3166  17.3166  17.3395  17.3395  17.4157  17.4278
    19.0471  19.0471  19.1621  19.1621  19.1650  19.2718  19.3467  19.4542

     highest occupied, lowest unoccupied level (ev):     8.7485    9.5517

!    total energy              =   -3638.20115371 Ry
     Harris-Foulkes estimate   =   -3638.20115371 Ry
     estimated scf accuracy    <          1.6E-09 Ry

     The total energy is the sum of the following terms:

     one-electron contribution =   -1067.58035781 Ry
     hartree contribution      =     849.87882463 Ry
     xc contribution           =   -1000.90212500 Ry
     ewald contribution        =   -2419.59749552 Ry

     convergence has been achieved in  10 iterations

     Forces acting on atoms (Ry/au):

     atom    1 type  1   force =     0.00000000    0.00000000    0.00000000
     atom    2 type  1   force =     0.00000000    0.00000000    0.00000000
     atom    3 type  1   force =     0.00000000    0.00000000    0.00000000
     atom    4 type  1   force =     0.00000000    0.00000000    0.00000000
     atom    5 type  1   force =     0.00000000    0.00000000    0.00000000
     atom    6 type  1   force =     0.00000000    0.00000000    0.00000000
     atom    7 type  1   force =     0.00000000    0.00000000    0.00000000
     atom    8 type  1   force =     0.00000000    0.00000000    0.00000000
     atom    9 type  1   force =     0.00000063    0.00000063   -0.00000074
     atom   10 type  1   force =    -0.00000184    0.00000184   -0.00001206
     atom   11 type  1   force =     0.00000184   -0.00000184   -0.00001206
     atom   12 type  1   force =    -0.00000063   -0.00000063   -0.00000074
     atom   13 type  1   force =     0.00000063    0.00000063    0.00000074
     atom   14 type  1   force =    -0.00000184    0.00000184    0.00001206
     atom   15 type  1   force =     0.00000184   -0.00000184    0.00001206
     atom   16 type  1   force =    -0.00000063   -0.00000063    0.00000074
     atom   17 type  2   force =    -0.00081982   -0.00081982   -0.00000000
     atom   18 type  2   force =    -0.00082055   -0.00082001    0.00000000
     atom   19 type  2   force =    -0.00082001   -0.00082055   -0.00000000
     atom   20 type  2   force =    -0.00082024   -0.00082024    0.00000000
     atom   21 type  2   force =    -0.00082064   -0.00082064    0.00000000
     atom   22 type  2   force =    -0.00082053   -0.00082066    0.00000000
     atom   23 type  2   force =    -0.00082066   -0.00082053    0.00000000
     atom   24 type  2   force =    -0.00082033   -0.00082033    0.00000000
     atom   25 type  2   force =     0.00082024    0.00082024    0.00000000
     atom   26 type  2   force =     0.00082001    0.00082055   -0.00000000
     atom   27 type  2   force =     0.00082055    0.00082001    0.00000000
     atom   28 type  2   force =     0.00081982    0.00081982    0.00000000
     atom   29 type  2   force =     0.00082033    0.00082033    0.00000000
     atom   30 type  2   force =     0.00082066    0.00082053    0.00000000
     atom   31 type  2   force =     0.00082053    0.00082066    0.00000000
     atom   32 type  2   force =     0.00082064    0.00082064    0.00000000
     atom   33 type  2   force =     0.00082092   -0.00082083   -0.00000018
     atom   34 type  2   force =     0.00081957   -0.00081957   -0.00000064
     atom   35 type  2   force =     0.00082000   -0.00082000   -0.00000023
     atom   36 type  2   force =     0.00082083   -0.00082092   -0.00000018
     atom   37 type  2   force =     0.00082092   -0.00082083    0.00000018
     atom   38 type  2   force =     0.00081957   -0.00081957    0.00000064
     atom   39 type  2   force =     0.00082000   -0.00082000    0.00000023
     atom   40 type  2   force =     0.00082083   -0.00082092    0.00000018
     atom   41 type  2   force =    -0.00082083    0.00082092   -0.00000018
     atom   42 type  2   force =    -0.00082000    0.00082000   -0.00000023
     atom   43 type  2   force =    -0.00081957    0.00081957   -0.00000064
     atom   44 type  2   force =    -0.00082092    0.00082083   -0.00000018
     atom   45 type  2   force =    -0.00082083    0.00082092    0.00000018
     atom   46 type  2   force =    -0.00082000    0.00082000    0.00000023
     atom   47 type  2   force =    -0.00081957    0.00081957    0.00000064
     atom   48 type  2   force =    -0.00082092    0.00082083    0.00000018

     Total force =     0.006563     Total SCF correction =     0.000044


     entering subroutine stress ...

          total   stress  (Ry/bohr**3)                   (kbar)     P=  -51.86
  -0.00033952   0.00000001   0.00000000        -49.94      0.00      0.00
   0.00000001  -0.00033952   0.00000000          0.00    -49.94      0.00
   0.00000000   0.00000000  -0.00037858          0.00      0.00    -55.69


     init_run     :   1105.09s CPU   1108.15s WALL (       1 calls)
     electrons    :  38503.43s CPU  38610.73s WALL (       1 calls)
     forces       :    804.51s CPU    804.89s WALL (       1 calls)
     stress       :   1045.32s CPU   1046.25s WALL (       1 calls)

     Called by init_run:
     wfcinit      :   1084.72s CPU   1087.57s WALL (       1 calls)
     potinit      :      2.28s CPU      2.30s WALL (       1 calls)

     Called by electrons:
     c_bands      :  35600.37s CPU  35697.19s WALL (      10 calls)
     sum_band     :   2829.37s CPU   2838.22s WALL (      10 calls)
     v_of_rho     :      5.74s CPU      5.88s WALL (      11 calls)
     newd         :     73.66s CPU     75.24s WALL (      11 calls)
     mix_rho      :      0.88s CPU      0.91s WALL (      10 calls)

     Called by c_bands:
     init_us_2    :     45.27s CPU     45.27s WALL (    1380 calls)
     cegterg      :  35508.00s CPU  35604.27s WALL (     600 calls)

     Called by sum_band:
     sum_band:bec :      2.18s CPU      2.15s WALL (     600 calls)
     addusdens    :    104.98s CPU    106.64s WALL (      10 calls)

     Called by *egterg:
     h_psi        :  13791.60s CPU  13837.49s WALL (    2904 calls)
     s_psi        :   5365.38s CPU   5366.60s WALL (    2904 calls)
     g_psi        :     12.73s CPU     12.70s WALL (    2244 calls)
     cdiaghg      :   2521.00s CPU   2521.28s WALL (    2844 calls)

     Called by h_psi:
     add_vuspsi   :   5375.66s CPU   5376.60s WALL (    2904 calls)

     General routines
     calbec       :   7945.40s CPU   7948.34s WALL (    3804 calls)
     fft          :      5.75s CPU      6.05s WALL (     197 calls)
     ffts         :      0.12s CPU      0.13s WALL (      21 calls)
     fftw         :   2912.53s CPU   2946.58s WALL (  971074 calls)
     interpolate  :      0.84s CPU      0.88s WALL (      21 calls)

     Parallel routines
     fft_scatter  :    408.65s CPU    416.41s WALL (  971292 calls)

     PWSCF        :    11h30m CPU       11h32m WALL


   This run was terminated on:  18: 6: 1  11May2018            

=------------------------------------------------------------------------------=
   JOB DONE.
=------------------------------------------------------------------------------=
